LAMMPS Description

     436  atoms
     429  bonds
     730  angles
     889  dihedrals
     0  impropers

     6  atom types
     16  bond types
     36  angle types
     49  dihedral types

  -200.0 200.0 xlo xhi
  -200.0 200.0 ylo yhi
  -200.0 200.0 zlo zhi

Masses

    1 15.035 #C3 "N-Alkane CH3- (UA)" 6 partial charge=0.0
    2 14.027 #C2 "Alkanes -CH2- (UA)" 6 partial charge=0.0
    3 13.019 #CH "Isobutane CH (UA)" 6 partial charge=0.0
    4 12.011 #CT "Alkane CH3-" 6 partial charge=-0.18
    5 12.011 #CT "Alkane -CH2-" 6 partial charge=-0.12
    6 1.008 #HC "Alkane H-C" 1 partial charge=0.06

Atoms # full

1 1 2 0.00 -50.0 0.0 0.0 # C
2 1 2 0.00 -48.509158 0.0 0.0 # C
3 1 1 0.00 -50.569277 1.281395 -0.585632 # C
4 1 2 0.00 -44.988327 0.0 0.0 # C
5 1 3 0.00 -46.5092 0.0 0.0 # C
6 1 1 0.00 -47.056382 0.48454800000000003 1.335438 # C
7 1 2 0.00 -41.467427 0.0 0.0 # C
8 1 3 0.00 -42.9883 0.0 0.0 # C
9 1 1 0.00 -43.535482 1.335438 -0.484548 # C
10 1 2 0.00 -37.946526999999996 0.0 0.0 # C
11 1 3 0.00 -39.4674 0.0 0.0 # C
12 1 1 0.00 -40.014582 0.48454800000000003 1.335438 # C
13 1 2 0.00 -34.425627 0.0 0.0 # C
14 1 3 0.00 -35.9465 0.0 0.0 # C
15 1 1 0.00 -36.493682 1.335438 -0.484548 # C
16 1 2 0.00 -30.904826999999997 0.0 0.0 # C
17 1 3 0.00 -32.4257 0.0 0.0 # C
18 1 1 0.00 -32.972882 0.48454800000000003 1.335438 # C
19 1 2 0.00 -27.383927 0.0 0.0 # C
20 1 3 0.00 -28.9048 0.0 0.0 # C
21 1 1 0.00 -29.451982 1.335438 -0.484548 # C
22 1 2 0.00 -23.863027000000002 0.0 0.0 # C
23 1 3 0.00 -25.3839 0.0 0.0 # C
24 1 1 0.00 -25.931082 0.48454800000000003 1.335438 # C
25 1 2 0.00 -20.342126999999998 0.0 0.0 # C
26 1 3 0.00 -21.863 0.0 0.0 # C
27 1 1 0.00 -22.410182 1.335438 -0.484548 # C
28 1 2 0.00 -16.821326999999997 0.0 0.0 # C
29 1 3 0.00 -18.3422 0.0 0.0 # C
30 1 1 0.00 -18.889381999999998 0.48454800000000003 1.335438 # C
31 1 2 0.00 -13.300427 0.0 0.0 # C
32 1 3 0.00 -14.8213 0.0 0.0 # C
33 1 1 0.00 -15.368482 1.335438 -0.484548 # C
34 1 2 0.00 -9.779527000000003 0.0 0.0 # C
35 1 3 0.00 -11.300400000000003 0.0 0.0 # C
36 1 1 0.00 -11.847582000000003 0.48454800000000003 1.335438 # C
37 1 2 0.00 -6.258727000000002 0.0 0.0 # C
38 1 3 0.00 -7.779600000000002 0.0 0.0 # C
39 1 1 0.00 -8.326782000000001 1.335438 -0.484548 # C
40 1 2 0.00 -2.7378269999999976 0.0 0.0 # C
41 1 3 0.00 -4.2586999999999975 0.0 0.0 # C
42 1 1 0.00 -4.805881999999998 0.48454800000000003 1.335438 # C
43 1 2 0.00 0.7830729999999999 0.0 0.0 # C
44 1 3 0.00 -0.7378 0.0 0.0 # C
45 1 1 0.00 -1.2849819999999998 1.335438 -0.484548 # C
46 1 2 0.00 4.303972999999997 0.0 0.0 # C
47 1 3 0.00 2.7830999999999975 0.0 0.0 # C
48 1 1 0.00 2.2359179999999976 0.48454800000000003 1.335438 # C
49 1 2 0.00 7.824772999999999 0.0 0.0 # C
50 1 3 0.00 6.303899999999999 0.0 0.0 # C
51 1 1 0.00 5.7567179999999984 1.335438 -0.484548 # C
52 1 2 0.00 11.345673000000003 0.0 0.0 # C
53 1 3 0.00 9.824800000000003 0.0 0.0 # C
54 1 1 0.00 9.277618000000004 0.48454800000000003 1.335438 # C
55 1 2 0.00 14.866573 0.0 0.0 # C
56 1 3 0.00 13.3457 0.0 0.0 # C
57 1 1 0.00 12.798518000000001 1.335438 -0.484548 # C
58 1 3 0.00 16.866600000000005 0.0 0.0 # C
59 1 1 0.00 18.354290000000006 0.0 0.0 # C
60 1 1 0.00 16.129680000000004 0.7075690000000001 1.081425 # C
61 2 2 0.00 -50.0 -8.5174 0.0 # C
62 2 2 0.00 -48.509158 -8.5174 0.0 # C
63 2 1 0.00 -50.569277 -7.2360050000000005 -0.585632 # C
64 2 2 0.00 -44.988327 -8.5174 0.0 # C
65 2 3 0.00 -46.5092 -8.5174 0.0 # C
66 2 1 0.00 -47.056382 -8.032852 1.335438 # C
67 2 2 0.00 -41.467427 -8.5174 0.0 # C
68 2 3 0.00 -42.9883 -8.5174 0.0 # C
69 2 1 0.00 -43.535482 -7.181962 -0.484548 # C
70 2 2 0.00 -37.946526999999996 -8.5174 0.0 # C
71 2 3 0.00 -39.4674 -8.5174 0.0 # C
72 2 1 0.00 -40.014582 -8.032852 1.335438 # C
73 2 2 0.00 -34.425627 -8.5174 0.0 # C
74 2 3 0.00 -35.9465 -8.5174 0.0 # C
75 2 1 0.00 -36.493682 -7.181962 -0.484548 # C
76 2 2 0.00 -30.904826999999997 -8.5174 0.0 # C
77 2 3 0.00 -32.4257 -8.5174 0.0 # C
78 2 1 0.00 -32.972882 -8.032852 1.335438 # C
79 2 2 0.00 -27.383927 -8.5174 0.0 # C
80 2 3 0.00 -28.9048 -8.5174 0.0 # C
81 2 1 0.00 -29.451982 -7.181962 -0.484548 # C
82 2 2 0.00 -23.863027000000002 -8.5174 0.0 # C
83 2 3 0.00 -25.3839 -8.5174 0.0 # C
84 2 1 0.00 -25.931082 -8.032852 1.335438 # C
85 2 2 0.00 -20.342126999999998 -8.5174 0.0 # C
86 2 3 0.00 -21.863 -8.5174 0.0 # C
87 2 1 0.00 -22.410182 -7.181962 -0.484548 # C
88 2 2 0.00 -16.821326999999997 -8.5174 0.0 # C
89 2 3 0.00 -18.3422 -8.5174 0.0 # C
90 2 1 0.00 -18.889381999999998 -8.032852 1.335438 # C
91 2 2 0.00 -13.300427 -8.5174 0.0 # C
92 2 3 0.00 -14.8213 -8.5174 0.0 # C
93 2 1 0.00 -15.368482 -7.181962 -0.484548 # C
94 2 2 0.00 -9.779527000000003 -8.5174 0.0 # C
95 2 3 0.00 -11.300400000000003 -8.5174 0.0 # C
96 2 1 0.00 -11.847582000000003 -8.032852 1.335438 # C
97 2 2 0.00 -6.258727000000002 -8.5174 0.0 # C
98 2 3 0.00 -7.779600000000002 -8.5174 0.0 # C
99 2 1 0.00 -8.326782000000001 -7.181962 -0.484548 # C
100 2 2 0.00 -2.7378269999999976 -8.5174 0.0 # C
101 2 3 0.00 -4.2586999999999975 -8.5174 0.0 # C
102 2 1 0.00 -4.805881999999998 -8.032852 1.335438 # C
103 2 2 0.00 0.7830729999999999 -8.5174 0.0 # C
104 2 3 0.00 -0.7378 -8.5174 0.0 # C
105 2 1 0.00 -1.2849819999999998 -7.181962 -0.484548 # C
106 2 2 0.00 4.303972999999997 -8.5174 0.0 # C
107 2 3 0.00 2.7830999999999975 -8.5174 0.0 # C
108 2 1 0.00 2.2359179999999976 -8.032852 1.335438 # C
109 2 2 0.00 7.824772999999999 -8.5174 0.0 # C
110 2 3 0.00 6.303899999999999 -8.5174 0.0 # C
111 2 1 0.00 5.7567179999999984 -7.181962 -0.484548 # C
112 2 2 0.00 11.345673000000003 -8.5174 0.0 # C
113 2 3 0.00 9.824800000000003 -8.5174 0.0 # C
114 2 1 0.00 9.277618000000004 -8.032852 1.335438 # C
115 2 2 0.00 14.866573 -8.5174 0.0 # C
116 2 3 0.00 13.3457 -8.5174 0.0 # C
117 2 1 0.00 12.798518000000001 -7.181962 -0.484548 # C
118 2 3 0.00 16.866600000000005 -8.5174 0.0 # C
119 2 1 0.00 18.354290000000006 -8.5174 0.0 # C
120 2 1 0.00 16.129680000000004 -7.809831 1.081425 # C
121 3 1 0.00 -50.0 -8.5174 8.5174 # C
122 3 2 0.00 -48.482569 -8.5174 8.5174 # C
123 3 2 0.00 -46.4826 -8.5174 8.5174 # C
124 3 2 0.00 -44.966825 -8.5174 8.5174 # C
125 3 2 0.00 -42.9668 -8.5174 8.5174 # C
126 3 2 0.00 -41.451025 -8.5174 8.5174 # C
127 3 2 0.00 -39.451 -8.5174 8.5174 # C
128 3 2 0.00 -37.935225 -8.5174 8.5174 # C
129 3 2 0.00 -35.9352 -8.5174 8.5174 # C
130 3 2 0.00 -34.419425000000004 -8.5174 8.5174 # C
131 3 2 0.00 -32.4195 -8.5174 8.5174 # C
132 3 2 0.00 -30.903724999999998 -8.5174 8.5174 # C
133 3 2 0.00 -28.9037 -8.5174 8.5174 # C
134 3 2 0.00 -27.387925 -8.5174 8.5174 # C
135 3 2 0.00 -25.3879 -8.5174 8.5174 # C
136 3 2 0.00 -23.872124999999997 -8.5174 8.5174 # C
137 3 2 0.00 -21.8721 -8.5174 8.5174 # C
138 3 2 0.00 -20.356325 -8.5174 8.5174 # C
139 3 2 0.00 -18.3564 -8.5174 8.5174 # C
140 3 1 0.00 -16.838969000000002 -8.5174 8.5174 # C
141 4 1 0.00 -50.0 -8.5174 17.0349 # C
142 4 2 0.00 -48.482569 -8.5174 17.0349 # C
143 4 2 0.00 -46.4826 -8.5174 17.0349 # C
144 4 2 0.00 -44.966825 -8.5174 17.0349 # C
145 4 2 0.00 -42.9668 -8.5174 17.0349 # C
146 4 2 0.00 -41.451025 -8.5174 17.0349 # C
147 4 2 0.00 -39.451 -8.5174 17.0349 # C
148 4 2 0.00 -37.935225 -8.5174 17.0349 # C
149 4 2 0.00 -35.9352 -8.5174 17.0349 # C
150 4 2 0.00 -34.419425000000004 -8.5174 17.0349 # C
151 4 2 0.00 -32.4195 -8.5174 17.0349 # C
152 4 2 0.00 -30.903724999999998 -8.5174 17.0349 # C
153 4 2 0.00 -28.9037 -8.5174 17.0349 # C
154 4 2 0.00 -27.387925 -8.5174 17.0349 # C
155 4 2 0.00 -25.3879 -8.5174 17.0349 # C
156 4 2 0.00 -23.872124999999997 -8.5174 17.0349 # C
157 4 2 0.00 -21.8721 -8.5174 17.0349 # C
158 4 2 0.00 -20.356325 -8.5174 17.0349 # C
159 4 2 0.00 -18.3564 -8.5174 17.0349 # C
160 4 1 0.00 -16.838969000000002 -8.5174 17.0349 # C
161 5 4 0.00 -50.0 -8.5174 25.5523 # C
162 5 5 0.00 -48.482569 -8.5174 25.5523 # C
163 5 6 0.00 -50.372143 -9.544895 25.746178 # H
164 5 6 0.00 -50.378643 -7.834785 26.342029 # H
165 5 6 0.00 -48.102626 -8.864184 26.536341999999998 # H
166 5 6 0.00 -48.102627 -7.493527 25.351596 # H
167 5 6 0.00 -50.372144 -8.17685 24.563685 # H
168 5 5 0.00 -46.4826 -8.5174 25.5523 # C
169 5 5 0.00 -44.966825 -8.5174 25.5523 # C
170 5 6 0.00 -46.856581999999996 -8.093188 24.597289 # H
171 5 6 0.00 -46.856581999999996 -7.901832000000001 26.396739 # H
172 5 6 0.00 -44.592842999999995 -9.132968 24.707860999999998 # H
173 5 6 0.00 -44.592842999999995 -8.941612000000001 26.507310999999998 # H
174 5 5 0.00 -42.9668 -8.5174 25.5523 # C
175 5 5 0.00 -41.451025 -8.5174 25.5523 # C
176 5 6 0.00 -43.340782 -9.472411000000001 25.128087999999998 # H
177 5 6 0.00 -43.340782 -7.672961 24.936732 # H
178 5 6 0.00 -41.077042999999996 -9.361839 26.167868 # H
179 5 6 0.00 -41.077042999999996 -7.5623890000000005 25.976512 # H
180 5 5 0.00 -39.451 -8.5174 25.5523 # C
181 5 5 0.00 -37.935225 -8.5174 25.5523 # C
182 5 6 0.00 -39.824982 -8.093188 24.597289 # H
183 5 6 0.00 -39.824982 -7.901832000000001 26.396739 # H
184 5 6 0.00 -37.561243 -9.132968 24.707860999999998 # H
185 5 6 0.00 -37.561243 -8.941612000000001 26.507310999999998 # H
186 5 5 0.00 -35.9352 -8.5174 25.5523 # C
187 5 5 0.00 -34.419425000000004 -8.5174 25.5523 # C
188 5 6 0.00 -36.309182 -9.472411000000001 25.128087999999998 # H
189 5 6 0.00 -36.309182 -7.672961 24.936732 # H
190 5 6 0.00 -34.045443 -9.361839 26.167868 # H
191 5 6 0.00 -34.045443 -7.5623890000000005 25.976512 # H
192 5 5 0.00 -32.4195 -8.5174 25.5523 # C
193 5 5 0.00 -30.903724999999998 -8.5174 25.5523 # C
194 5 6 0.00 -32.793482 -8.093188 24.597289 # H
195 5 6 0.00 -32.793482 -7.901832000000001 26.396739 # H
196 5 6 0.00 -30.529743 -9.132968 24.707860999999998 # H
197 5 6 0.00 -30.529743 -8.941612000000001 26.507310999999998 # H
198 5 5 0.00 -28.9037 -8.5174 25.5523 # C
199 5 5 0.00 -27.387925 -8.5174 25.5523 # C
200 5 6 0.00 -29.277682000000002 -9.472411000000001 25.128087999999998 # H
201 5 6 0.00 -29.277682000000002 -7.672961 24.936732 # H
202 5 6 0.00 -27.013943 -9.361839 26.167868 # H
203 5 6 0.00 -27.013943 -7.5623890000000005 25.976512 # H
204 5 5 0.00 -25.3879 -8.5174 25.5523 # C
205 5 5 0.00 -23.872124999999997 -8.5174 25.5523 # C
206 5 6 0.00 -25.761882 -8.093188 24.597289 # H
207 5 6 0.00 -25.761882 -7.901832000000001 26.396739 # H
208 5 6 0.00 -23.498143 -9.132968 24.707860999999998 # H
209 5 6 0.00 -23.498143 -8.941612000000001 26.507310999999998 # H
210 5 5 0.00 -21.8721 -8.5174 25.5523 # C
211 5 5 0.00 -20.356325 -8.5174 25.5523 # C
212 5 6 0.00 -22.246082 -9.472411000000001 25.128087999999998 # H
213 5 6 0.00 -22.246082 -7.672961 24.936732 # H
214 5 6 0.00 -19.982343 -9.361839 26.167868 # H
215 5 6 0.00 -19.982343 -7.5623890000000005 25.976512 # H
216 5 5 0.00 -18.3564 -8.5174 25.5523 # C
217 5 5 0.00 -16.840625 -8.5174 25.5523 # C
218 5 6 0.00 -18.730382000000002 -8.093188 24.597289 # H
219 5 6 0.00 -18.730382000000002 -7.901832000000001 26.396739 # H
220 5 6 0.00 -16.466643 -9.132968 24.707860999999998 # H
221 5 6 0.00 -16.466643 -8.941612000000001 26.507310999999998 # H
222 5 5 0.00 -14.840600000000002 -8.5174 25.5523 # C
223 5 5 0.00 -13.324825000000002 -8.5174 25.5523 # C
224 5 6 0.00 -15.214582000000002 -9.472411000000001 25.128087999999998 # H
225 5 6 0.00 -15.214582000000002 -7.672961 24.936732 # H
226 5 6 0.00 -12.950843000000003 -9.361839 26.167868 # H
227 5 6 0.00 -12.950843000000003 -7.5623890000000005 25.976512 # H
228 5 5 0.00 -11.324800000000003 -8.5174 25.5523 # C
229 5 5 0.00 -9.809025000000004 -8.5174 25.5523 # C
230 5 6 0.00 -11.698782000000003 -8.093188 24.597289 # H
231 5 6 0.00 -11.698782000000003 -7.901832000000001 26.396739 # H
232 5 6 0.00 -9.435043000000004 -9.132968 24.707860999999998 # H
233 5 6 0.00 -9.435043000000004 -8.941612000000001 26.507310999999998 # H
234 5 5 0.00 -7.8089999999999975 -8.5174 25.5523 # C
235 5 5 0.00 -6.293224999999998 -8.5174 25.5523 # C
236 5 6 0.00 -8.182981999999997 -9.472411000000001 25.128087999999998 # H
237 5 6 0.00 -8.182981999999997 -7.672961 24.936732 # H
238 5 6 0.00 -5.919242999999998 -9.361839 26.167868 # H
239 5 6 0.00 -5.919242999999998 -7.5623890000000005 25.976512 # H
240 5 5 0.00 -4.293300000000002 -8.5174 25.5523 # C
241 5 5 0.00 -2.777525000000002 -8.5174 25.5523 # C
242 5 6 0.00 -4.667282000000002 -8.093188 24.597289 # H
243 5 6 0.00 -4.667282000000002 -7.901832000000001 26.396739 # H
244 5 6 0.00 -2.403543000000002 -9.132968 24.707860999999998 # H
245 5 6 0.00 -2.403543000000002 -8.941612000000001 26.507310999999998 # H
246 5 5 0.00 -0.7775000000000034 -8.5174 25.5523 # C
247 5 4 0.00 0.7399309999999966 -8.5174 25.5523 # C
248 5 6 0.00 1.1120739999999967 -8.591337000000001 24.509290999999997 # H
249 5 6 0.00 1.1185739999999966 -7.579979000000001 26.011512 # H
250 5 6 0.00 -1.1574430000000033 -7.6539790000000005 24.966551 # H
251 5 6 0.00 -1.1574420000000034 -8.450986 26.593543 # H
252 5 6 0.00 1.1120739999999967 -9.38683 26.133184 # H
253 6 4 0.00 -50.0 -8.5174 34.0697 # C
254 6 5 0.00 -48.482569 -8.5174 34.0697 # C
255 6 6 0.00 -50.372143 -9.544895 34.263577999999995 # H
256 6 6 0.00 -50.378643 -7.834785 34.859429 # H
257 6 6 0.00 -48.102626 -8.864184 35.053742 # H
258 6 6 0.00 -48.102627 -7.493527 33.868995999999996 # H
259 6 6 0.00 -50.372144 -8.17685 33.081084999999995 # H
260 6 5 0.00 -46.4826 -8.5174 34.0697 # C
261 6 5 0.00 -44.966825 -8.5174 34.0697 # C
262 6 6 0.00 -46.856581999999996 -8.093188 33.114689 # H
263 6 6 0.00 -46.856581999999996 -7.901832000000001 34.914139 # H
264 6 6 0.00 -44.592842999999995 -9.132968 33.225260999999996 # H
265 6 6 0.00 -44.592842999999995 -8.941612000000001 35.024710999999996 # H
266 6 5 0.00 -42.9668 -8.5174 34.0697 # C
267 6 5 0.00 -41.451025 -8.5174 34.0697 # C
268 6 6 0.00 -43.340782 -9.472411000000001 33.645488 # H
269 6 6 0.00 -43.340782 -7.672961 33.454131999999994 # H
270 6 6 0.00 -41.077042999999996 -9.361839 34.685268 # H
271 6 6 0.00 -41.077042999999996 -7.5623890000000005 34.493911999999995 # H
272 6 5 0.00 -39.451 -8.5174 34.0697 # C
273 6 5 0.00 -37.935225 -8.5174 34.0697 # C
274 6 6 0.00 -39.824982 -8.093188 33.114689 # H
275 6 6 0.00 -39.824982 -7.901832000000001 34.914139 # H
276 6 6 0.00 -37.561243 -9.132968 33.225260999999996 # H
277 6 6 0.00 -37.561243 -8.941612000000001 35.024710999999996 # H
278 6 5 0.00 -35.9352 -8.5174 34.0697 # C
279 6 5 0.00 -34.419425000000004 -8.5174 34.0697 # C
280 6 6 0.00 -36.309182 -9.472411000000001 33.645488 # H
281 6 6 0.00 -36.309182 -7.672961 33.454131999999994 # H
282 6 6 0.00 -34.045443 -9.361839 34.685268 # H
283 6 6 0.00 -34.045443 -7.5623890000000005 34.493911999999995 # H
284 6 5 0.00 -32.4195 -8.5174 34.0697 # C
285 6 5 0.00 -30.903724999999998 -8.5174 34.0697 # C
286 6 6 0.00 -32.793482 -8.093188 33.114689 # H
287 6 6 0.00 -32.793482 -7.901832000000001 34.914139 # H
288 6 6 0.00 -30.529743 -9.132968 33.225260999999996 # H
289 6 6 0.00 -30.529743 -8.941612000000001 35.024710999999996 # H
290 6 5 0.00 -28.9037 -8.5174 34.0697 # C
291 6 5 0.00 -27.387925 -8.5174 34.0697 # C
292 6 6 0.00 -29.277682000000002 -9.472411000000001 33.645488 # H
293 6 6 0.00 -29.277682000000002 -7.672961 33.454131999999994 # H
294 6 6 0.00 -27.013943 -9.361839 34.685268 # H
295 6 6 0.00 -27.013943 -7.5623890000000005 34.493911999999995 # H
296 6 5 0.00 -25.3879 -8.5174 34.0697 # C
297 6 5 0.00 -23.872124999999997 -8.5174 34.0697 # C
298 6 6 0.00 -25.761882 -8.093188 33.114689 # H
299 6 6 0.00 -25.761882 -7.901832000000001 34.914139 # H
300 6 6 0.00 -23.498143 -9.132968 33.225260999999996 # H
301 6 6 0.00 -23.498143 -8.941612000000001 35.024710999999996 # H
302 6 5 0.00 -21.8721 -8.5174 34.0697 # C
303 6 5 0.00 -20.356325 -8.5174 34.0697 # C
304 6 6 0.00 -22.246082 -9.472411000000001 33.645488 # H
305 6 6 0.00 -22.246082 -7.672961 33.454131999999994 # H
306 6 6 0.00 -19.982343 -9.361839 34.685268 # H
307 6 6 0.00 -19.982343 -7.5623890000000005 34.493911999999995 # H
308 6 5 0.00 -18.3564 -8.5174 34.0697 # C
309 6 5 0.00 -16.840625 -8.5174 34.0697 # C
310 6 6 0.00 -18.730382000000002 -8.093188 33.114689 # H
311 6 6 0.00 -18.730382000000002 -7.901832000000001 34.914139 # H
312 6 6 0.00 -16.466643 -9.132968 33.225260999999996 # H
313 6 6 0.00 -16.466643 -8.941612000000001 35.024710999999996 # H
314 6 5 0.00 -14.840600000000002 -8.5174 34.0697 # C
315 6 5 0.00 -13.324825000000002 -8.5174 34.0697 # C
316 6 6 0.00 -15.214582000000002 -9.472411000000001 33.645488 # H
317 6 6 0.00 -15.214582000000002 -7.672961 33.454131999999994 # H
318 6 6 0.00 -12.950843000000003 -9.361839 34.685268 # H
319 6 6 0.00 -12.950843000000003 -7.5623890000000005 34.493911999999995 # H
320 6 5 0.00 -11.324800000000003 -8.5174 34.0697 # C
321 6 5 0.00 -9.809025000000004 -8.5174 34.0697 # C
322 6 6 0.00 -11.698782000000003 -8.093188 33.114689 # H
323 6 6 0.00 -11.698782000000003 -7.901832000000001 34.914139 # H
324 6 6 0.00 -9.435043000000004 -9.132968 33.225260999999996 # H
325 6 6 0.00 -9.435043000000004 -8.941612000000001 35.024710999999996 # H
326 6 5 0.00 -7.8089999999999975 -8.5174 34.0697 # C
327 6 5 0.00 -6.293224999999998 -8.5174 34.0697 # C
328 6 6 0.00 -8.182981999999997 -9.472411000000001 33.645488 # H
329 6 6 0.00 -8.182981999999997 -7.672961 33.454131999999994 # H
330 6 6 0.00 -5.919242999999998 -9.361839 34.685268 # H
331 6 6 0.00 -5.919242999999998 -7.5623890000000005 34.493911999999995 # H
332 6 5 0.00 -4.293300000000002 -8.5174 34.0697 # C
333 6 5 0.00 -2.777525000000002 -8.5174 34.0697 # C
334 6 6 0.00 -4.667282000000002 -8.093188 33.114689 # H
335 6 6 0.00 -4.667282000000002 -7.901832000000001 34.914139 # H
336 6 6 0.00 -2.403543000000002 -9.132968 33.225260999999996 # H
337 6 6 0.00 -2.403543000000002 -8.941612000000001 35.024710999999996 # H
338 6 5 0.00 -0.7775000000000034 -8.5174 34.0697 # C
339 6 4 0.00 0.7399309999999966 -8.5174 34.0697 # C
340 6 6 0.00 1.1120739999999967 -8.591337000000001 33.026691 # H
341 6 6 0.00 1.1185739999999966 -7.579979000000001 34.528912 # H
342 6 6 0.00 -1.1574430000000033 -7.6539790000000005 33.483951 # H
343 6 6 0.00 -1.1574420000000034 -8.450986 35.110943 # H
344 6 6 0.00 1.1120739999999967 -9.38683 34.650583999999995 # H
345 7 4 0.00 -50.0 -8.5174 42.5872 # C
346 7 5 0.00 -48.482569 -8.5174 42.5872 # C
347 7 6 0.00 -50.372143 -9.544895 42.781078 # H
348 7 6 0.00 -50.378643 -7.834785 43.376929000000004 # H
349 7 6 0.00 -48.102626 -8.864184 43.571242000000005 # H
350 7 6 0.00 -48.102627 -7.493527 42.386496 # H
351 7 6 0.00 -50.372144 -8.17685 41.598585 # H
352 7 5 0.00 -46.4826 -8.5174 42.5872 # C
353 7 5 0.00 -44.966825 -8.5174 42.5872 # C
354 7 6 0.00 -46.856581999999996 -8.093188 41.632189000000004 # H
355 7 6 0.00 -46.856581999999996 -7.901832000000001 43.431639000000004 # H
356 7 6 0.00 -44.592842999999995 -9.132968 41.742761 # H
357 7 6 0.00 -44.592842999999995 -8.941612000000001 43.542211 # H
358 7 5 0.00 -42.9668 -8.5174 42.5872 # C
359 7 5 0.00 -41.451025 -8.5174 42.5872 # C
360 7 6 0.00 -43.340782 -9.472411000000001 42.162988000000006 # H
361 7 6 0.00 -43.340782 -7.672961 41.971632 # H
362 7 6 0.00 -41.077042999999996 -9.361839 43.202768000000006 # H
363 7 6 0.00 -41.077042999999996 -7.5623890000000005 43.011412 # H
364 7 5 0.00 -39.451 -8.5174 42.5872 # C
365 7 5 0.00 -37.935225 -8.5174 42.5872 # C
366 7 6 0.00 -39.824982 -8.093188 41.632189000000004 # H
367 7 6 0.00 -39.824982 -7.901832000000001 43.431639000000004 # H
368 7 6 0.00 -37.561243 -9.132968 41.742761 # H
369 7 6 0.00 -37.561243 -8.941612000000001 43.542211 # H
370 7 5 0.00 -35.9352 -8.5174 42.5872 # C
371 7 5 0.00 -34.419425000000004 -8.5174 42.5872 # C
372 7 6 0.00 -36.309182 -9.472411000000001 42.162988000000006 # H
373 7 6 0.00 -36.309182 -7.672961 41.971632 # H
374 7 6 0.00 -34.045443 -9.361839 43.202768000000006 # H
375 7 6 0.00 -34.045443 -7.5623890000000005 43.011412 # H
376 7 5 0.00 -32.4195 -8.5174 42.5872 # C
377 7 5 0.00 -30.903724999999998 -8.5174 42.5872 # C
378 7 6 0.00 -32.793482 -8.093188 41.632189000000004 # H
379 7 6 0.00 -32.793482 -7.901832000000001 43.431639000000004 # H
380 7 6 0.00 -30.529743 -9.132968 41.742761 # H
381 7 6 0.00 -30.529743 -8.941612000000001 43.542211 # H
382 7 5 0.00 -28.9037 -8.5174 42.5872 # C
383 7 5 0.00 -27.387925 -8.5174 42.5872 # C
384 7 6 0.00 -29.277682000000002 -9.472411000000001 42.162988000000006 # H
385 7 6 0.00 -29.277682000000002 -7.672961 41.971632 # H
386 7 6 0.00 -27.013943 -9.361839 43.202768000000006 # H
387 7 6 0.00 -27.013943 -7.5623890000000005 43.011412 # H
388 7 5 0.00 -25.3879 -8.5174 42.5872 # C
389 7 5 0.00 -23.872124999999997 -8.5174 42.5872 # C
390 7 6 0.00 -25.761882 -8.093188 41.632189000000004 # H
391 7 6 0.00 -25.761882 -7.901832000000001 43.431639000000004 # H
392 7 6 0.00 -23.498143 -9.132968 41.742761 # H
393 7 6 0.00 -23.498143 -8.941612000000001 43.542211 # H
394 7 5 0.00 -21.8721 -8.5174 42.5872 # C
395 7 5 0.00 -20.356325 -8.5174 42.5872 # C
396 7 6 0.00 -22.246082 -9.472411000000001 42.162988000000006 # H
397 7 6 0.00 -22.246082 -7.672961 41.971632 # H
398 7 6 0.00 -19.982343 -9.361839 43.202768000000006 # H
399 7 6 0.00 -19.982343 -7.5623890000000005 43.011412 # H
400 7 5 0.00 -18.3564 -8.5174 42.5872 # C
401 7 5 0.00 -16.840625 -8.5174 42.5872 # C
402 7 6 0.00 -18.730382000000002 -8.093188 41.632189000000004 # H
403 7 6 0.00 -18.730382000000002 -7.901832000000001 43.431639000000004 # H
404 7 6 0.00 -16.466643 -9.132968 41.742761 # H
405 7 6 0.00 -16.466643 -8.941612000000001 43.542211 # H
406 7 5 0.00 -14.840600000000002 -8.5174 42.5872 # C
407 7 5 0.00 -13.324825000000002 -8.5174 42.5872 # C
408 7 6 0.00 -15.214582000000002 -9.472411000000001 42.162988000000006 # H
409 7 6 0.00 -15.214582000000002 -7.672961 41.971632 # H
410 7 6 0.00 -12.950843000000003 -9.361839 43.202768000000006 # H
411 7 6 0.00 -12.950843000000003 -7.5623890000000005 43.011412 # H
412 7 5 0.00 -11.324800000000003 -8.5174 42.5872 # C
413 7 5 0.00 -9.809025000000004 -8.5174 42.5872 # C
414 7 6 0.00 -11.698782000000003 -8.093188 41.632189000000004 # H
415 7 6 0.00 -11.698782000000003 -7.901832000000001 43.431639000000004 # H
416 7 6 0.00 -9.435043000000004 -9.132968 41.742761 # H
417 7 6 0.00 -9.435043000000004 -8.941612000000001 43.542211 # H
418 7 5 0.00 -7.8089999999999975 -8.5174 42.5872 # C
419 7 5 0.00 -6.293224999999998 -8.5174 42.5872 # C
420 7 6 0.00 -8.182981999999997 -9.472411000000001 42.162988000000006 # H
421 7 6 0.00 -8.182981999999997 -7.672961 41.971632 # H
422 7 6 0.00 -5.919242999999998 -9.361839 43.202768000000006 # H
423 7 6 0.00 -5.919242999999998 -7.5623890000000005 43.011412 # H
424 7 5 0.00 -4.293300000000002 -8.5174 42.5872 # C
425 7 5 0.00 -2.777525000000002 -8.5174 42.5872 # C
426 7 6 0.00 -4.667282000000002 -8.093188 41.632189000000004 # H
427 7 6 0.00 -4.667282000000002 -7.901832000000001 43.431639000000004 # H
428 7 6 0.00 -2.403543000000002 -9.132968 41.742761 # H
429 7 6 0.00 -2.403543000000002 -8.941612000000001 43.542211 # H
430 7 5 0.00 -0.7775000000000034 -8.5174 42.5872 # C
431 7 4 0.00 0.7399309999999966 -8.5174 42.5872 # C
432 7 6 0.00 1.1120739999999967 -8.591337000000001 41.544191000000005 # H
433 7 6 0.00 1.1185739999999966 -7.579979000000001 43.046412000000004 # H
434 7 6 0.00 -1.1574430000000033 -7.6539790000000005 42.001451 # H
435 7 6 0.00 -1.1574420000000034 -8.450986 43.628443000000004 # H
436 7 6 0.00 1.1120739999999967 -9.38683 43.168084 # H

Bonds

1 1 1 2
2 2 1 3
3 3 4 5
4 7 5 6
5 3 7 8
6 7 8 9
7 3 10 11
8 7 11 12
9 3 13 14
10 7 14 15
11 3 16 17
12 7 17 18
13 3 19 20
14 7 20 21
15 3 22 23
16 7 23 24
17 3 25 26
18 7 26 27
19 3 28 29
20 7 29 30
21 3 31 32
22 7 32 33
23 3 34 35
24 7 35 36
25 3 37 38
26 7 38 39
27 3 40 41
28 7 41 42
29 3 43 44
30 7 44 45
31 3 46 47
32 7 47 48
33 3 49 50
34 7 50 51
35 3 52 53
36 7 53 54
37 3 55 56
38 7 56 57
39 7 58 59
40 7 58 60
41 1 2 4
42 3 5 7
43 3 8 10
44 3 11 13
45 3 14 16
46 3 17 19
47 3 20 22
48 3 23 25
49 3 26 28
50 3 29 31
51 3 32 34
52 3 35 37
53 3 38 40
54 3 41 43
55 3 44 46
56 3 47 49
57 3 50 52
58 3 53 55
59 10 56 58
60 1 61 62
61 2 61 63
62 3 64 65
63 7 65 66
64 3 67 68
65 7 68 69
66 3 70 71
67 7 71 72
68 3 73 74
69 7 74 75
70 3 76 77
71 7 77 78
72 3 79 80
73 7 80 81
74 3 82 83
75 7 83 84
76 3 85 86
77 7 86 87
78 3 88 89
79 7 89 90
80 3 91 92
81 7 92 93
82 3 94 95
83 7 95 96
84 3 97 98
85 7 98 99
86 3 100 101
87 7 101 102
88 3 103 104
89 7 104 105
90 3 106 107
91 7 107 108
92 3 109 110
93 7 110 111
94 3 112 113
95 7 113 114
96 3 115 116
97 7 116 117
98 7 118 119
99 7 118 120
100 1 62 64
101 3 65 67
102 3 68 70
103 3 71 73
104 3 74 76
105 3 77 79
106 3 80 82
107 3 83 85
108 3 86 88
109 3 89 91
110 3 92 94
111 3 95 97
112 3 98 100
113 3 101 103
114 3 104 106
115 3 107 109
116 3 110 112
117 3 113 115
118 10 116 118
119 2 121 122
120 1 123 124
121 1 125 126
122 1 127 128
123 1 129 130
124 1 131 132
125 1 133 134
126 1 135 136
127 1 137 138
128 2 139 140
129 1 122 123
130 1 124 125
131 1 126 127
132 1 128 129
133 1 130 131
134 1 132 133
135 1 134 135
136 1 136 137
137 1 138 139
138 2 141 142
139 1 143 144
140 1 145 146
141 1 147 148
142 1 149 150
143 1 151 152
144 1 153 154
145 1 155 156
146 1 157 158
147 2 159 160
148 1 142 143
149 1 144 145
150 1 146 147
151 1 148 149
152 1 150 151
153 1 152 153
154 1 154 155
155 1 156 157
156 1 158 159
157 13 161 162
158 15 161 163
159 15 161 164
160 16 162 165
161 16 162 166
162 15 161 167
163 14 168 169
164 16 168 170
165 16 168 171
166 16 169 172
167 16 169 173
168 14 174 175
169 16 174 176
170 16 174 177
171 16 175 178
172 16 175 179
173 14 180 181
174 16 180 182
175 16 180 183
176 16 181 184
177 16 181 185
178 14 186 187
179 16 186 188
180 16 186 189
181 16 187 190
182 16 187 191
183 14 192 193
184 16 192 194
185 16 192 195
186 16 193 196
187 16 193 197
188 14 198 199
189 16 198 200
190 16 198 201
191 16 199 202
192 16 199 203
193 14 204 205
194 16 204 206
195 16 204 207
196 16 205 208
197 16 205 209
198 14 210 211
199 16 210 212
200 16 210 213
201 16 211 214
202 16 211 215
203 14 216 217
204 16 216 218
205 16 216 219
206 16 217 220
207 16 217 221
208 14 222 223
209 16 222 224
210 16 222 225
211 16 223 226
212 16 223 227
213 14 228 229
214 16 228 230
215 16 228 231
216 16 229 232
217 16 229 233
218 14 234 235
219 16 234 236
220 16 234 237
221 16 235 238
222 16 235 239
223 14 240 241
224 16 240 242
225 16 240 243
226 16 241 244
227 16 241 245
228 13 246 247
229 15 247 248
230 15 247 249
231 16 246 250
232 16 246 251
233 15 247 252
234 14 162 168
235 14 169 174
236 14 175 180
237 14 181 186
238 14 187 192
239 14 193 198
240 14 199 204
241 14 205 210
242 14 211 216
243 14 217 222
244 14 223 228
245 14 229 234
246 14 235 240
247 14 241 246
248 13 253 254
249 15 253 255
250 15 253 256
251 16 254 257
252 16 254 258
253 15 253 259
254 14 260 261
255 16 260 262
256 16 260 263
257 16 261 264
258 16 261 265
259 14 266 267
260 16 266 268
261 16 266 269
262 16 267 270
263 16 267 271
264 14 272 273
265 16 272 274
266 16 272 275
267 16 273 276
268 16 273 277
269 14 278 279
270 16 278 280
271 16 278 281
272 16 279 282
273 16 279 283
274 14 284 285
275 16 284 286
276 16 284 287
277 16 285 288
278 16 285 289
279 14 290 291
280 16 290 292
281 16 290 293
282 16 291 294
283 16 291 295
284 14 296 297
285 16 296 298
286 16 296 299
287 16 297 300
288 16 297 301
289 14 302 303
290 16 302 304
291 16 302 305
292 16 303 306
293 16 303 307
294 14 308 309
295 16 308 310
296 16 308 311
297 16 309 312
298 16 309 313
299 14 314 315
300 16 314 316
301 16 314 317
302 16 315 318
303 16 315 319
304 14 320 321
305 16 320 322
306 16 320 323
307 16 321 324
308 16 321 325
309 14 326 327
310 16 326 328
311 16 326 329
312 16 327 330
313 16 327 331
314 14 332 333
315 16 332 334
316 16 332 335
317 16 333 336
318 16 333 337
319 13 338 339
320 15 339 340
321 15 339 341
322 16 338 342
323 16 338 343
324 15 339 344
325 14 254 260
326 14 261 266
327 14 267 272
328 14 273 278
329 14 279 284
330 14 285 290
331 14 291 296
332 14 297 302
333 14 303 308
334 14 309 314
335 14 315 320
336 14 321 326
337 14 327 332
338 14 333 338
339 13 345 346
340 15 345 347
341 15 345 348
342 16 346 349
343 16 346 350
344 15 345 351
345 14 352 353
346 16 352 354
347 16 352 355
348 16 353 356
349 16 353 357
350 14 358 359
351 16 358 360
352 16 358 361
353 16 359 362
354 16 359 363
355 14 364 365
356 16 364 366
357 16 364 367
358 16 365 368
359 16 365 369
360 14 370 371
361 16 370 372
362 16 370 373
363 16 371 374
364 16 371 375
365 14 376 377
366 16 376 378
367 16 376 379
368 16 377 380
369 16 377 381
370 14 382 383
371 16 382 384
372 16 382 385
373 16 383 386
374 16 383 387
375 14 388 389
376 16 388 390
377 16 388 391
378 16 389 392
379 16 389 393
380 14 394 395
381 16 394 396
382 16 394 397
383 16 395 398
384 16 395 399
385 14 400 401
386 16 400 402
387 16 400 403
388 16 401 404
389 16 401 405
390 14 406 407
391 16 406 408
392 16 406 409
393 16 407 410
394 16 407 411
395 14 412 413
396 16 412 414
397 16 412 415
398 16 413 416
399 16 413 417
400 14 418 419
401 16 418 420
402 16 418 421
403 16 419 422
404 16 419 423
405 14 424 425
406 16 424 426
407 16 424 427
408 16 425 428
409 16 425 429
410 13 430 431
411 15 431 432
412 15 431 433
413 16 430 434
414 16 430 435
415 15 431 436
416 14 346 352
417 14 353 358
418 14 359 364
419 14 365 370
420 14 371 376
421 14 377 382
422 14 383 388
423 14 389 394
424 14 395 400
425 14 401 406
426 14 407 412
427 14 413 418
428 14 419 424
429 14 425 430

Angles

1 1 1 2 4
2 1 61 62 64
3 1 122 123 124
4 1 123 124 125
5 1 124 125 126
6 1 125 126 127
7 1 126 127 128
8 1 127 128 129
9 1 128 129 130
10 1 129 130 131
11 1 130 131 132
12 1 131 132 133
13 1 132 133 134
14 1 133 134 135
15 1 134 135 136
16 1 135 136 137
17 1 136 137 138
18 1 137 138 139
19 1 142 143 144
20 1 143 144 145
21 1 144 145 146
22 1 145 146 147
23 1 146 147 148
24 1 147 148 149
25 1 148 149 150
26 1 149 150 151
27 1 150 151 152
28 1 151 152 153
29 1 152 153 154
30 1 153 154 155
31 1 154 155 156
32 1 155 156 157
33 1 156 157 158
34 1 157 158 159
35 2 2 1 3
36 2 62 61 63
37 2 121 122 123
38 2 138 139 140
39 2 141 142 143
40 2 158 159 160
41 4 2 4 5
42 4 62 64 65
43 6 5 7 8
44 6 8 10 11
45 6 11 13 14
46 6 14 16 17
47 6 17 19 20
48 6 20 22 23
49 6 23 25 26