LAMMPS Description

     600  atoms
     600  bonds
     900  angles
     1200  dihedrals
     900  impropers

     2  atom types
     2  bond types
     2  angle types
     6  dihedral types
     1  improper types

  -200.0 200.0 xlo xhi
  -200.0 200.0 ylo yhi
  -200.0 200.0 zlo zhi

Masses

    1 12.011 #CA "Aromatic C" 6 partial charge=-0.115
    2 1.008 #HA "Aromatic H-C" 1 partial charge=0.115

Atoms # full

1 1 1 0.00 -5.739 1.189 -0.00733 # 90<->"Aromatic C"
2 1 1 0.00 -4.386 1.208 0.35167 # 90<->"Aromatic C"
3 1 1 0.00 -3.6470000000000002 0.019 0.35867 # 90<->"Aromatic C"
4 1 1 0.00 -4.261 -1.189 0.00667 # 90<->"Aromatic C"
5 1 1 0.00 -5.614 -1.208 -0.35133 # 90<->"Aromatic C"
6 1 1 0.00 -6.353 -0.019 -0.35833 # 90<->"Aromatic C"
7 1 2 0.00 -6.309 2.106 -0.01233 # 91<->"Aromatic H-C"
8 1 2 0.00 -3.912 2.14 0.62267 # 91<->"Aromatic H-C"
9 1 2 0.00 -2.603 0.034 0.63467 # 91<->"Aromatic H-C"
10 1 2 0.00 -3.691 -2.106 0.01267 # 91<->"Aromatic H-C"
11 1 2 0.00 -6.088 -2.14 -0.62233 # 91<->"Aromatic H-C"
12 1 2 0.00 -7.397 -0.034 -0.63533 # 91<->"Aromatic H-C"
13 2 1 0.00 -5.739 -7.811 -0.00733 # 90<->"Aromatic C"
14 2 1 0.00 -4.386 -7.792 0.35167 # 90<->"Aromatic C"
15 2 1 0.00 -3.6470000000000002 -8.981 0.35867 # 90<->"Aromatic C"
16 2 1 0.00 -4.261 -10.189 0.00667 # 90<->"Aromatic C"
17 2 1 0.00 -5.614 -10.208 -0.35133 # 90<->"Aromatic C"
18 2 1 0.00 -6.353 -9.019 -0.35833 # 90<->"Aromatic C"
19 2 2 0.00 -6.309 -6.894 -0.01233 # 91<->"Aromatic H-C"
20 2 2 0.00 -3.912 -6.859999999999999 0.62267 # 91<->"Aromatic H-C"
21 2 2 0.00 -2.603 -8.966 0.63467 # 91<->"Aromatic H-C"
22 2 2 0.00 -3.691 -11.106 0.01267 # 91<->"Aromatic H-C"
23 2 2 0.00 -6.088 -11.14 -0.62233 # 91<->"Aromatic H-C"
24 2 2 0.00 -7.397 -9.034 -0.63533 # 91<->"Aromatic H-C"
25 3 1 0.00 -5.739 -7.811 8.99267 # 90<->"Aromatic C"
26 3 1 0.00 -4.386 -7.792 9.35167 # 90<->"Aromatic C"
27 3 1 0.00 -3.6470000000000002 -8.981 9.35867 # 90<->"Aromatic C"
28 3 1 0.00 -4.261 -10.189 9.00667 # 90<->"Aromatic C"
29 3 1 0.00 -5.614 -10.208 8.64867 # 90<->"Aromatic C"
30 3 1 0.00 -6.353 -9.019 8.64167 # 90<->"Aromatic C"
31 3 2 0.00 -6.309 -6.894 8.98767 # 91<->"Aromatic H-C"
32 3 2 0.00 -3.912 -6.859999999999999 9.62267 # 91<->"Aromatic H-C"
33 3 2 0.00 -2.603 -8.966 9.63467 # 91<->"Aromatic H-C"
34 3 2 0.00 -3.691 -11.106 9.01267 # 91<->"Aromatic H-C"
35 3 2 0.00 -6.088 -11.14 8.37767 # 91<->"Aromatic H-C"
36 3 2 0.00 -7.397 -9.034 8.36467 # 91<->"Aromatic H-C"
37 4 1 0.00 -5.739 1.189 8.99267 # 90<->"Aromatic C"
38 4 1 0.00 -4.386 1.208 9.35167 # 90<->"Aromatic C"
39 4 1 0.00 -3.6470000000000002 0.019 9.35867 # 90<->"Aromatic C"
40 4 1 0.00 -4.261 -1.189 9.00667 # 90<->"Aromatic C"
41 4 1 0.00 -5.614 -1.208 8.64867 # 90<->"Aromatic C"
42 4 1 0.00 -6.353 -0.019 8.64167 # 90<->"Aromatic C"
43 4 2 0.00 -6.309 2.106 8.98767 # 91<->"Aromatic H-C"
44 4 2 0.00 -3.912 2.14 9.62267 # 91<->"Aromatic H-C"
45 4 2 0.00 -2.603 0.034 9.63467 # 91<->"Aromatic H-C"
46 4 2 0.00 -3.691 -2.106 9.01267 # 91<->"Aromatic H-C"
47 4 2 0.00 -6.088 -2.14 8.37767 # 91<->"Aromatic H-C"
48 4 2 0.00 -7.397 -0.034 8.36467 # 91<->"Aromatic H-C"
49 5 1 0.00 -5.739 10.189 8.99267 # 90<->"Aromatic C"
50 5 1 0.00 -4.386 10.208 9.35167 # 90<->"Aromatic C"
51 5 1 0.00 -3.6470000000000002 9.019 9.35867 # 90<->"Aromatic C"
52 5 1 0.00 -4.261 7.811 9.00667 # 90<->"Aromatic C"
53 5 1 0.00 -5.614 7.792 8.64867 # 90<->"Aromatic C"
54 5 1 0.00 -6.353 8.981 8.64167 # 90<->"Aromatic C"
55 5 2 0.00 -6.309 11.106 8.98767 # 91<->"Aromatic H-C"
56 5 2 0.00 -3.912 11.14 9.62267 # 91<->"Aromatic H-C"
57 5 2 0.00 -2.603 9.034 9.63467 # 91<->"Aromatic H-C"
58 5 2 0.00 -3.691 6.894 9.01267 # 91<->"Aromatic H-C"
59 5 2 0.00 -6.088 6.859999999999999 8.37767 # 91<->"Aromatic H-C"
60 5 2 0.00 -7.397 8.966 8.36467 # 91<->"Aromatic H-C"
61 6 1 0.00 -5.739 10.189 -0.00733 # 90<->"Aromatic C"
62 6 1 0.00 -4.386 10.208 0.35167 # 90<->"Aromatic C"
63 6 1 0.00 -3.6470000000000002 9.019 0.35867 # 90<->"Aromatic C"
64 6 1 0.00 -4.261 7.811 0.00667 # 90<->"Aromatic C"
65 6 1 0.00 -5.614 7.792 -0.35133 # 90<->"Aromatic C"
66 6 1 0.00 -6.353 8.981 -0.35833 # 90<->"Aromatic C"
67 6 2 0.00 -6.309 11.106 -0.01233 # 91<->"Aromatic H-C"
68 6 2 0.00 -3.912 11.14 0.62267 # 91<->"Aromatic H-C"
69 6 2 0.00 -2.603 9.034 0.63467 # 91<->"Aromatic H-C"
70 6 2 0.00 -3.691 6.894 0.01267 # 91<->"Aromatic H-C"
71 6 2 0.00 -6.088 6.859999999999999 -0.62233 # 91<->"Aromatic H-C"
72 6 2 0.00 -7.397 8.966 -0.63533 # 91<->"Aromatic H-C"
73 7 1 0.00 -5.739 10.189 -9.00733 # 90<->"Aromatic C"
74 7 1 0.00 -4.386 10.208 -8.64833 # 90<->"Aromatic C"
75 7 1 0.00 -3.6470000000000002 9.019 -8.64133 # 90<->"Aromatic C"
76 7 1 0.00 -4.261 7.811 -8.99333 # 90<->"Aromatic C"
77 7 1 0.00 -5.614 7.792 -9.35133 # 90<->"Aromatic C"
78 7 1 0.00 -6.353 8.981 -9.35833 # 90<->"Aromatic C"
79 7 2 0.00 -6.309 11.106 -9.01233 # 91<->"Aromatic H-C"
80 7 2 0.00 -3.912 11.14 -8.37733 # 91<->"Aromatic H-C"
81 7 2 0.00 -2.603 9.034 -8.36533 # 91<->"Aromatic H-C"
82 7 2 0.00 -3.691 6.894 -8.98733 # 91<->"Aromatic H-C"
83 7 2 0.00 -6.088 6.859999999999999 -9.62233 # 91<->"Aromatic H-C"
84 7 2 0.00 -7.397 8.966 -9.63533 # 91<->"Aromatic H-C"
85 8 1 0.00 -5.739 1.189 -9.00733 # 90<->"Aromatic C"
86 8 1 0.00 -4.386 1.208 -8.64833 # 90<->"Aromatic C"
87 8 1 0.00 -3.6470000000000002 0.019 -8.64133 # 90<->"Aromatic C"
88 8 1 0.00 -4.261 -1.189 -8.99333 # 90<->"Aromatic C"
89 8 1 0.00 -5.614 -1.208 -9.35133 # 90<->"Aromatic C"
90 8 1 0.00 -6.353 -0.019 -9.35833 # 90<->"Aromatic C"
91 8 2 0.00 -6.309 2.106 -9.01233 # 91<->"Aromatic H-C"
92 8 2 0.00 -3.912 2.14 -8.37733 # 91<->"Aromatic H-C"
93 8 2 0.00 -2.603 0.034 -8.36533 # 91<->"Aromatic H-C"
94 8 2 0.00 -3.691 -2.106 -8.98733 # 91<->"Aromatic H-C"
95 8 2 0.00 -6.088 -2.14 -9.62233 # 91<->"Aromatic H-C"
96 8 2 0.00 -7.397 -0.034 -9.63533 # 91<->"Aromatic H-C"
97 9 1 0.00 -5.739 -7.811 -9.00733 # 90<->"Aromatic C"
98 9 1 0.00 -4.386 -7.792 -8.64833 # 90<->"Aromatic C"
99 9 1 0.00 -3.6470000000000002 -8.981 -8.64133 # 90<->"Aromatic C"
100 9 1 0.00 -4.261 -10.189 -8.99333 # 90<->"Aromatic C"
101 9 1 0.00 -5.614 -10.208 -9.35133 # 90<->"Aromatic C"
102 9 1 0.00 -6.353 -9.019 -9.35833 # 90<->"Aromatic C"
103 9 2 0.00 -6.309 -6.894 -9.01233 # 91<->"Aromatic H-C"
104 9 2 0.00 -3.912 -6.859999999999999 -8.37733 # 91<->"Aromatic H-C"
105 9 2 0.00 -2.603 -8.966 -8.36533 # 91<->"Aromatic H-C"
106 9 2 0.00 -3.691 -11.106 -8.98733 # 91<->"Aromatic H-C"
107 9 2 0.00 -6.088 -11.14 -9.62233 # 91<->"Aromatic H-C"
108 9 2 0.00 -7.397 -9.034 -9.63533 # 91<->"Aromatic H-C"
109 10 1 0.00 -5.739 -16.811 -9.00733 # 90<->"Aromatic C"
110 10 1 0.00 -4.386 -16.792 -8.64833 # 90<->"Aromatic C"
111 10 1 0.00 -3.6470000000000002 -17.981 -8.64133 # 90<->"Aromatic C"
112 10 1 0.00 -4.261 -19.189 -8.99333 # 90<->"Aromatic C"
113 10 1 0.00 -5.614 -19.208 -9.35133 # 90<->"Aromatic C"
114 10 1 0.00 -6.353 -18.019 -9.35833 # 90<->"Aromatic C"
115 10 2 0.00 -6.309 -15.894 -9.01233 # 91<->"Aromatic H-C"
116 10 2 0.00 -3.912 -15.86 -8.37733 # 91<->"Aromatic H-C"
117 10 2 0.00 -2.603 -17.966 -8.36533 # 91<->"Aromatic H-C"
118 10 2 0.00 -3.691 -20.106 -8.98733 # 91<->"Aromatic H-C"
119 10 2 0.00 -6.088 -20.14 -9.62233 # 91<->"Aromatic H-C"
120 10 2 0.00 -7.397 -18.034 -9.63533 # 91<->"Aromatic H-C"
121 11 1 0.00 -5.739 -16.811 -0.00733 # 90<->"Aromatic C"
122 11 1 0.00 -4.386 -16.792 0.35167 # 90<->"Aromatic C"
123 11 1 0.00 -3.6470000000000002 -17.981 0.35867 # 90<->"Aromatic C"
124 11 1 0.00 -4.261 -19.189 0.00667 # 90<->"Aromatic C"
125 11 1 0.00 -5.614 -19.208 -0.35133 # 90<->"Aromatic C"
126 11 1 0.00 -6.353 -18.019 -0.35833 # 90<->"Aromatic C"
127 11 2 0.00 -6.309 -15.894 -0.01233 # 91<->"Aromatic H-C"
128 11 2 0.00 -3.912 -15.86 0.62267 # 91<->"Aromatic H-C"
129 11 2 0.00 -2.603 -17.966 0.63467 # 91<->"Aromatic H-C"
130 11 2 0.00 -3.691 -20.106 0.01267 # 91<->"Aromatic H-C"
131 11 2 0.00 -6.088 -20.14 -0.62233 # 91<->"Aromatic H-C"
132 11 2 0.00 -7.397 -18.034 -0.63533 # 91<->"Aromatic H-C"
133 12 1 0.00 -5.739 -16.811 8.99267 # 90<->"Aromatic C"
134 12 1 0.00 -4.386 -16.792 9.35167 # 90<->"Aromatic C"
135 12 1 0.00 -3.6470000000000002 -17.981 9.35867 # 90<->"Aromatic C"
136 12 1 0.00 -4.261 -19.189 9.00667 # 90<->"Aromatic C"
137 12 1 0.00 -5.614 -19.208 8.64867 # 90<->"Aromatic C"
138 12 1 0.00 -6.353 -18.019 8.64167 # 90<->"Aromatic C"
139 12 2 0.00 -6.309 -15.894 8.98767 # 91<->"Aromatic H-C"
140 12 2 0.00 -3.912 -15.86 9.62267 # 91<->"Aromatic H-C"
141 12 2 0.00 -2.603 -17.966 9.63467 # 91<->"Aromatic H-C"
142 12 2 0.00 -3.691 -20.106 9.01267 # 91<->"Aromatic H-C"
143 12 2 0.00 -6.088 -20.14 8.37767 # 91<->"Aromatic H-C"
144 12 2 0.00 -7.397 -18.034 8.36467 # 91<->"Aromatic H-C"
145 13 1 0.00 -5.739 -16.811 17.99267 # 90<->"Aromatic C"
146 13 1 0.00 -4.386 -16.792 18.35167 # 90<->"Aromatic C"
147 13 1 0.00 -3.6470000000000002 -17.981 18.35867 # 90<->"Aromatic C"
148 13 1 0.00 -4.261 -19.189 18.00667 # 90<->"Aromatic C"
149 13 1 0.00 -5.614 -19.208 17.64867 # 90<->"Aromatic C"
150 13 1 0.00 -6.353 -18.019 17.64167 # 90<->"Aromatic C"
151 13 2 0.00 -6.309 -15.894 17.98767 # 91<->"Aromatic H-C"
152 13 2 0.00 -3.912 -15.86 18.62267 # 91<->"Aromatic H-C"
153 13 2 0.00 -2.603 -17.966 18.63467 # 91<->"Aromatic H-C"
154 13 2 0.00 -3.691 -20.106 18.01267 # 91<->"Aromatic H-C"
155 13 2 0.00 -6.088 -20.14 17.37767 # 91<->"Aromatic H-C"
156 13 2 0.00 -7.397 -18.034 17.36467 # 91<->"Aromatic H-C"
157 14 1 0.00 -5.739 -7.811 17.99267 # 90<->"Aromatic C"
158 14 1 0.00 -4.386 -7.792 18.35167 # 90<->"Aromatic C"
159 14 1 0.00 -3.6470000000000002 -8.981 18.35867 # 90<->"Aromatic C"
160 14 1 0.00 -4.261 -10.189 18.00667 # 90<->"Aromatic C"
161 14 1 0.00 -5.614 -10.208 17.64867 # 90<->"Aromatic C"
162 14 1 0.00 -6.353 -9.019 17.64167 # 90<->"Aromatic C"
163 14 2 0.00 -6.309 -6.894 17.98767 # 91<->"Aromatic H-C"
164 14 2 0.00 -3.912 -6.859999999999999 18.62267 # 91<->"Aromatic H-C"
165 14 2 0.00 -2.603 -8.966 18.63467 # 91<->"Aromatic H-C"
166 14 2 0.00 -3.691 -11.106 18.01267 # 91<->"Aromatic H-C"
167 14 2 0.00 -6.088 -11.14 17.37767 # 91<->"Aromatic H-C"
168 14 2 0.00 -7.397 -9.034 17.36467 # 91<->"Aromatic H-C"
169 15 1 0.00 -5.739 1.189 17.99267 # 90<->"Aromatic C"
170 15 1 0.00 -4.386 1.208 18.35167 # 90<->"Aromatic C"
171 15 1 0.00 -3.6470000000000002 0.019 18.35867 # 90<->"Aromatic C"
172 15 1 0.00 -4.261 -1.189 18.00667 # 90<->"Aromatic C"
173 15 1 0.00 -5.614 -1.208 17.64867 # 90<->"Aromatic C"
174 15 1 0.00 -6.353 -0.019 17.64167 # 90<->"Aromatic C"
175 15 2 0.00 -6.309 2.106 17.98767 # 91<->"Aromatic H-C"
176 15 2 0.00 -3.912 2.14 18.62267 # 91<->"Aromatic H-C"
177 15 2 0.00 -2.603 0.034 18.63467 # 91<->"Aromatic H-C"
178 15 2 0.00 -3.691 -2.106 18.01267 # 91<->"Aromatic H-C"
179 15 2 0.00 -6.088 -2.14 17.37767 # 91<->"Aromatic H-C"
180 15 2 0.00 -7.397 -0.034 17.36467 # 91<->"Aromatic H-C"
181 16 1 0.00 -5.739 10.189 17.99267 # 90<->"Aromatic C"
182 16 1 0.00 -4.386 10.208 18.35167 # 90<->"Aromatic C"
183 16 1 0.00 -3.6470000000000002 9.019 18.35867 # 90<->"Aromatic C"
184 16 1 0.00 -4.261 7.811 18.00667 # 90<->"Aromatic C"
185 16 1 0.00 -5.614 7.792 17.64867 # 90<->"Aromatic C"
186 16 1 0.00 -6.353 8.981 17.64167 # 90<->"Aromatic C"
187 16 2 0.00 -6.309 11.106 17.98767 # 91<->"Aromatic H-C"
188 16 2 0.00 -3.912 11.14 18.62267 # 91<->"Aromatic H-C"
189 16 2 0.00 -2.603 9.034 18.63467 # 91<->"Aromatic H-C"
190 16 2 0.00 -3.691 6.894 18.01267 # 91<->"Aromatic H-C"
191 16 2 0.00 -6.088 6.859999999999999 17.37767 # 91<->"Aromatic H-C"
192 16 2 0.00 -7.397 8.966 17.36467 # 91<->"Aromatic H-C"
193 17 1 0.00 -5.739 19.189 17.99267 # 90<->"Aromatic C"
194 17 1 0.00 -4.386 19.208 18.35167 # 90<->"Aromatic C"
195 17 1 0.00 -3.6470000000000002 18.019 18.35867 # 90<->"Aromatic C"
196 17 1 0.00 -4.261 16.811 18.00667 # 90<->"Aromatic C"
197 17 1 0.00 -5.614 16.792 17.64867 # 90<->"Aromatic C"
198 17 1 0.00 -6.353 17.981 17.64167 # 90<->"Aromatic C"
199 17 2 0.00 -6.309 20.106 17.98767 # 91<->"Aromatic H-C"
200 17 2 0.00 -3.912 20.14 18.62267 # 91<->"Aromatic H-C"
201 17 2 0.00 -2.603 18.034 18.63467 # 91<->"Aromatic H-C"
202 17 2 0.00 -3.691 15.894 18.01267 # 91<->"Aromatic H-C"
203 17 2 0.00 -6.088 15.86 17.37767 # 91<->"Aromatic H-C"
204 17 2 0.00 -7.397 17.966 17.36467 # 91<->"Aromatic H-C"
205 18 1 0.00 -5.739 19.189 8.99267 # 90<->"Aromatic C"
206 18 1 0.00 -4.386 19.208 9.35167 # 90<->"Aromatic C"
207 18 1 0.00 -3.6470000000000002 18.019 9.35867 # 90<->"Aromatic C"
208 18 1 0.00 -4.261 16.811 9.00667 # 90<->"Aromatic C"
209 18 1 0.00 -5.614 16.792 8.64867 # 90<->"Aromatic C"
210 18 1 0.00 -6.353 17.981 8.64167 # 90<->"Aromatic C"
211 18 2 0.00 -6.309 20.106 8.98767 # 91<->"Aromatic H-C"
212 18 2 0.00 -3.912 20.14 9.62267 # 91<->"Aromatic H-C"
213 18 2 0.00 -2.603 18.034 9.63467 # 91<->"Aromatic H-C"
214 18 2 0.00 -3.691 15.894 9.01267 # 91<->"Aromatic H-C"
215 18 2 0.00 -6.088 15.86 8.37767 # 91<->"Aromatic H-C"
216 18 2 0.00 -7.397 17.966 8.36467 # 91<->"Aromatic H-C"
217 19 1 0.00 -5.739 19.189 -0.00733 # 90<->"Aromatic C"
218 19 1 0.00 -4.386 19.208 0.35167 # 90<->"Aromatic C"
219 19 1 0.00 -3.6470000000000002 18.019 0.35867 # 90<->"Aromatic C"
220 19 1 0.00 -4.261 16.811 0.00667 # 90<->"Aromatic C"
221 19 1 0.00 -5.614 16.792 -0.35133 # 90<->"Aromatic C"
222 19 1 0.00 -6.353 17.981 -0.35833 # 90<->"Aromatic C"
223 19 2 0.00 -6.309 20.106 -0.01233 # 91<->"Aromatic H-C"
224 19 2 0.00 -3.912 20.14 0.62267 # 91<->"Aromatic H-C"
225 19 2 0.00 -2.603 18.034 0.63467 # 91<->"Aromatic H-C"
226 19 2 0.00 -3.691 15.894 0.01267 # 91<->"Aromatic H-C"
227 19 2 0.00 -6.088 15.86 -0.62233 # 91<->"Aromatic H-C"
228 19 2 0.00 -7.397 17.966 -0.63533 # 91<->"Aromatic H-C"
229 20 1 0.00 -5.739 19.189 -9.00733 # 90<->"Aromatic C"
230 20 1 0.00 -4.386 19.208 -8.64833 # 90<->"Aromatic C"
231 20 1 0.00 -3.6470000000000002 18.019 -8.64133 # 90<->"Aromatic C"
232 20 1 0.00 -4.261 16.811 -8.99333 # 90<->"Aromatic C"
233 20 1 0.00 -5.614 16.792 -9.35133 # 90<->"Aromatic C"
234 20 1 0.00 -6.353 17.981 -9.35833 # 90<->"Aromatic C"
235 20 2 0.00 -6.309 20.106 -9.01233 # 91<->"Aromatic H-C"
236 20 2 0.00 -3.912 20.14 -8.37733 # 91<->"Aromatic H-C"
237 20 2 0.00 -2.603 18.034 -8.36533 # 91<->"Aromatic H-C"
238 20 2 0.00 -3.691 15.894 -8.98733 # 91<->"Aromatic H-C"
239 20 2 0.00 -6.088 15.86 -9.62233 # 91<->"Aromatic H-C"
240 20 2 0.00 -7.397 17.966 -9.63533 # 91<->"Aromatic H-C"
241 21 1 0.00 -5.739 19.189 -18.00733 # 90<->"Aromatic C"
242 21 1 0.00 -4.386 19.208 -17.64833 # 90<->"Aromatic C"
243 21 1 0.00 -3.6470000000000002 18.019 -17.64133 # 90<->"Aromatic C"
244 21 1 0.00 -4.261 16.811 -17.99333 # 90<->"Aromatic C"
245 21 1 0.00 -5.614 16.792 -18.35133 # 90<->"Aromatic C"
246 21 1 0.00 -6.353 17.981 -18.35833 # 90<->"Aromatic C"
247 21 2 0.00 -6.309 20.106 -18.01233 # 91<->"Aromatic H-C"
248 21 2 0.00 -3.912 20.14 -17.37733 # 91<->"Aromatic H-C"
249 21 2 0.00 -2.603 18.034 -17.36533 # 91<->"Aromatic H-C"
250 21 2 0.00 -3.691 15.894 -17.98733 # 91<->"Aromatic H-C"
251 21 2 0.00 -6.088 15.86 -18.62233 # 91<->"Aromatic H-C"
252 21 2 0.00 -7.397 17.966 -18.63533 # 91<->"Aromatic H-C"
253 22 1 0.00 -5.739 10.189 -18.00733 # 90<->"Aromatic C"
254 22 1 0.00 -4.386 10.208 -17.64833 # 90<->"Aromatic C"
255 22 1 0.00 -3.6470000000000002 9.019 -17.64133 # 90<->"Aromatic C"
256 22 1 0.00 -4.261 7.811 -17.99333 # 90<->"Aromatic C"
257 22 1 0.00 -5.614 7.792 -18.35133 # 90<->"Aromatic C"
258 22 1 0.00 -6.353 8.981 -18.35833 # 90<->"Aromatic C"
259 22 2 0.00 -6.309 11.106 -18.01233 # 91<->"Aromatic H-C"
260 22 2 0.00 -3.912 11.14 -17.37733 # 91<->"Aromatic H-C"
261 22 2 0.00 -2.603 9.034 -17.36533 # 91<->"Aromatic H-C"
262 22 2 0.00 -3.691 6.894 -17.98733 # 91<->"Aromatic H-C"
263 22 2 0.00 -6.088 6.859999999999999 -18.62233 # 91<->"Aromatic H-C"
264 22 2 0.00 -7.397 8.966 -18.63533 # 91<->"Aromatic H-C"
265 23 1 0.00 -5.739 1.189 -18.00733 # 90<->"Aromatic C"
266 23 1 0.00 -4.386 1.208 -17.64833 # 90<->"Aromatic C"
267 23 1 0.00 -3.6470000000000002 0.019 -17.64133 # 90<->"Aromatic C"
268 23 1 0.00 -4.261 -1.189 -17.99333 # 90<->"Aromatic C"
269 23 1 0.00 -5.614 -1.208 -18.35133 # 90<->"Aromatic C"
270 23 1 0.00 -6.353 -0.019 -18.35833 # 90<->"Aromatic C"
271 23 2 0.00 -6.309 2.106 -18.01233 # 91<->"Aromatic H-C"
272 23 2 0.00 -3.912 2.14 -17.37733 # 91<->"Aromatic H-C"
273 23 2 0.00 -2.603 0.034 -17.36533 # 91<->"Aromatic H-C"
274 23 2 0.00 -3.691 -2.106 -17.98733 # 91<->"Aromatic H-C"
275 23 2 0.00 -6.088 -2.14 -18.62233 # 91<->"Aromatic H-C"
276 23 2 0.00 -7.397 -0.034 -18.63533 # 91<->"Aromatic H-C"
277 24 1 0.00 -5.739 -7.811 -18.00733 # 90<->"Aromatic C"
278 24 1 0.00 -4.386 -7.792 -17.64833 # 90<->"Aromatic C"
279 24 1 0.00 -3.6470000000000002 -8.981 -17.64133 # 90<->"Aromatic C"
280 24 1 0.00 -4.261 -10.189 -17.99333 # 90<->"Aromatic C"
281 24 1 0.00 -5.614 -10.208 -18.35133 # 90<->"Aromatic C"
282 24 1 0.00 -6.353 -9.019 -18.35833 # 90<->"Aromatic C"
283 24 2 0.00 -6.309 -6.894 -18.01233 # 91<->"Aromatic H-C"
284 24 2 0.00 -3.912 -6.859999999999999 -17.37733 # 91<->"Aromatic H-C"
285 24 2 0.00 -2.603 -8.966 -17.36533 # 91<->"Aromatic H-C"
286 24 2 0.00 -3.691 -11.106 -17.98733 # 91<->"Aromatic H-C"
287 24 2 0.00 -6.088 -11.14 -18.62233 # 91<->"Aromatic H-C"
288 24 2 0.00 -7.397 -9.034 -18.63533 # 91<->"Aromatic H-C"
289 25 1 0.00 -5.739 -16.811 -18.00733 # 90<->"Aromatic C"
290 25 1 0.00 -4.386 -16.792 -17.64833 # 90<->"Aromatic C"
291 25 1 0.00 -3.6470000000000002 -17.981 -17.64133 # 90<->"Aromatic C"
292 25 1 0.00 -4.261 -19.189 -17.99333 # 90<->"Aromatic C"
293 25 1 0.00 -5.614 -19.208 -18.35133 # 90<->"Aromatic C"
294 25 1 0.00 -6.353 -18.019 -18.35833 # 90<->"Aromatic C"
295 25 2 0.00 -6.309 -15.894 -18.01233 # 91<->"Aromatic H-C"
296 25 2 0.00 -3.912 -15.86 -17.37733 # 91<->"Aromatic H-C"
297 25 2 0.00 -2.603 -17.966 -17.36533 # 91<->"Aromatic H-C"
298 25 2 0.00 -3.691 -20.106 -17.98733 # 91<->"Aromatic H-C"
299 25 2 0.00 -6.088 -20.14 -18.62233 # 91<->"Aromatic H-C"
300 25 2 0.00 -7.397 -18.034 -18.63533 # 91<->"Aromatic H-C"
301 26 1 0.00 -5.739 -25.811 -18.00733 # 90<->"Aromatic C"
302 26 1 0.00 -4.386 -25.792 -17.64833 # 90<->"Aromatic C"
303 26 1 0.00 -3.6470000000000002 -26.981 -17.64133 # 90<->"Aromatic C"
304 26 1 0.00 -4.261 -28.189 -17.99333 # 90<->"Aromatic C"
305 26 1 0.00 -5.614 -28.208 -18.35133 # 90<->"Aromatic C"
306 26 1 0.00 -6.353 -27.019 -18.35833 # 90<->"Aromatic C"
307 26 2 0.00 -6.309 -24.894 -18.01233 # 91<->"Aromatic H-C"
308 26 2 0.00 -3.912 -24.86 -17.37733 # 91<->"Aromatic H-C"
309 26 2 0.00 -2.603 -26.966 -17.36533 # 91<->"Aromatic H-C"
310 26 2 0.00 -3.691 -29.106 -17.98733 # 91<->"Aromatic H-C"
311 26 2 0.00 -6.088 -29.14 -18.62233 # 91<->"Aromatic H-C"
312 26 2 0.00 -7.397 -27.034 -18.63533 # 91<->"Aromatic H-C"
313 27 1 0.00 -5.739 -25.811 -9.00733 # 90<->"Aromatic C"
314 27 1 0.00 -4.386 -25.792 -8.64833 # 90<->"Aromatic C"
315 27 1 0.00 -3.6470000000000002 -26.981 -8.64133 # 90<->"Aromatic C"
316 27 1 0.00 -4.261 -28.189 -8.99333 # 90<->"Aromatic C"
317 27 1 0.00 -5.614 -28.208 -9.35133 # 90<->"Aromatic C"
318 27 1 0.00 -6.353 -27.019 -9.35833 # 90<->"Aromatic C"
319 27 2 0.00 -6.309 -24.894 -9.01233 # 91<->"Aromatic H-C"
320 27 2 0.00 -3.912 -24.86 -8.37733 # 91<->"Aromatic H-C"
321 27 2 0.00 -2.603 -26.966 -8.36533 # 91<->"Aromatic H-C"
322 27 2 0.00 -3.691 -29.106 -8.98733 # 91<->"Aromatic H-C"
323 27 2 0.00 -6.088 -29.14 -9.62233 # 91<->"Aromatic H-C"
324 27 2 0.00 -7.397 -27.034 -9.63533 # 91<->"Aromatic H-C"
325 28 1 0.00 -5.739 -25.811 -0.00733 # 90<->"Aromatic C"
326 28 1 0.00 -4.386 -25.792 0.35167 # 90<->"Aromatic C"
327 28 1 0.00 -3.6470000000000002 -26.981 0.35867 # 90<->"Aromatic C"
328 28 1 0.00 -4.261 -28.189 0.00667 # 90<->"Aromatic C"
329 28 1 0.00 -5.614 -28.208 -0.35133 # 90<->"Aromatic C"
330 28 1 0.00 -6.353 -27.019 -0.35833 # 90<->"Aromatic C"
331 28 2 0.00 -6.309 -24.894 -0.01233 # 91<->"Aromatic H-C"
332 28 2 0.00 -3.912 -24.86 0.62267 # 91<->"Aromatic H-C"
333 28 2 0.00 -2.603 -26.966 0.63467 # 91<->"Aromatic H-C"
334 28 2 0.00 -3.691 -29.106 0.01267 # 91<->"Aromatic H-C"
335 28 2 0.00 -6.088 -29.14 -0.62233 # 91<->"Aromatic H-C"
336 28 2 0.00 -7.397 -27.034 -0.63533 # 91<->"Aromatic H-C"
337 29 1 0.00 -5.739 -25.811 8.99267 # 90<->"Aromatic C"
338 29 1 0.00 -4.386 -25.792 9.35167 # 90<->"Aromatic C"
339 29 1 0.00 -3.6470000000000002 -26.981 9.35867 # 90<->"Aromatic C"
340 29 1 0.00 -4.261 -28.189 9.00667 # 90<->"Aromatic C"
341 29 1 0.00 -5.614 -28.208 8.64867 # 90<->"Aromatic C"
342 29 1 0.00 -6.353 -27.019 8.64167 # 90<->"Aromatic C"
343 29 2 0.00 -6.309 -24.894 8.98767 # 91<->"Aromatic H-C"
344 29 2 0.00 -3.912 -24.86 9.62267 # 91<->"Aromatic H-C"
345 29 2 0.00 -2.603 -26.966 9.63467 # 91<->"Aromatic H-C"
346 29 2 0.00 -3.691 -29.106 9.01267 # 91<->"Aromatic H-C"
347 29 2 0.00 -6.088 -29.14 8.37767 # 91<->"Aromatic H-C"
348 29 2 0.00 -7.397 -27.034 8.36467 # 91<->"Aromatic H-C"
349 30 1 0.00 -5.739 -25.811 17.99267 # 90<->"Aromatic C"
350 30 1 0.00 -4.386 -25.792 18.35167 # 90<->"Aromatic C"
351 30 1 0.00 -3.6470000000000002 -26.981 18.35867 # 90<->"Aromatic C"
352 30 1 0.00 -4.261 -28.189 18.00667 # 90<->"Aromatic C"
353 30 1 0.00 -5.614 -28.208 17.64867 # 90<->"Aromatic C"
354 30 1 0.00 -6.353 -27.019 17.64167 # 90<->"Aromatic C"
355 30 2 0.00 -6.309 -24.894 17.98767 # 91<->"Aromatic H-C"
356 30 2 0.00 -3.912 -24.86 18.62267 # 91<->"Aromatic H-C"
357 30 2 0.00 -2.603 -26.966 18.63467 # 91<->"Aromatic H-C"
358 30 2 0.00 -3.691 -29.106 18.01267 # 91<->"Aromatic H-C"
359 30 2 0.00 -6.088 -29.14 17.37767 # 91<->"Aromatic H-C"
360 30 2 0.00 -7.397 -27.034 17.36467 # 91<->"Aromatic H-C"
361 31 1 0.00 -5.739 -25.811 26.99267 # 90<->"Aromatic C"
362 31 1 0.00 -4.386 -25.792 27.35167 # 90<->"Aromatic C"
363 31 1 0.00 -3.6470000000000002 -26.981 27.35867 # 90<->"Aromatic C"
364 31 1 0.00 -4.261 -28.189 27.00667 # 90<->"Aromatic C"
365 31 1 0.00 -5.614 -28.208 26.64867 # 90<->"Aromatic C"
366 31 1 0.00 -6.353 -27.019 26.64167 # 90<->"Aromatic C"
367 31 2 0.00 -6.309 -24.894 26.98767 # 91<->"Aromatic H-C"
368 31 2 0.00 -3.912 -24.86 27.62267 # 91<->"Aromatic H-C"
369 31 2 0.00 -2.603 -26.966 27.63467 # 91<->"Aromatic H-C"
370 31 2 0.00 -3.691 -29.106 27.01267 # 91<->"Aromatic H-C"
371 31 2 0.00 -6.088 -29.14 26.37767 # 91<->"Aromatic H-C"
372 31 2 0.00 -7.397 -27.034 26.36467 # 91<->"Aromatic H-C"
373 32 1 0.00 -5.739 -16.811 26.99267 # 90<->"Aromatic C"
374 32 1 0.00 -4.386 -16.792 27.35167 # 90<->"Aromatic C"
375 32 1 0.00 -3.6470000000000002 -17.981 27.35867 # 90<->"Aromatic C"
376 32 1 0.00 -4.261 -19.189 27.00667 # 90<->"Aromatic C"
377 32 1 0.00 -5.614 -19.208 26.64867 # 90<->"Aromatic C"
378 32 1 0.00 -6.353 -18.019 26.64167 # 90<->"Aromatic C"
379 32 2 0.00 -6.309 -15.894 26.98767 # 91<->"Aromatic H-C"
380 32 2 0.00 -3.912 -15.86 27.62267 # 91<->"Aromatic H-C"
381 32 2 0.00 -2.603 -17.966 27.63467 # 91<->"Aromatic H-C"
382 32 2 0.00 -3.691 -20.106 27.01267 # 91<->"Aromatic H-C"
383 32 2 0.00 -6.088 -20.14 26.37767 # 91<->"Aromatic H-C"
384 32 2 0.00 -7.397 -18.034 26.36467 # 91<->"Aromatic H-C"
385 33 1 0.00 -5.739 -7.811 26.99267 # 90<->"Aromatic C"
386 33 1 0.00 -4.386 -7.792 27.35167 # 90<->"Aromatic C"
387 33 1 0.00 -3.6470000000000002 -8.981 27.35867 # 90<->"Aromatic C"
388 33 1 0.00 -4.261 -10.189 27.00667 # 90<->"Aromatic C"
389 33 1 0.00 -5.614 -10.208 26.64867 # 90<->"Aromatic C"
390 33 1 0.00 -6.353 -9.019 26.64167 # 90<->"Aromatic C"
391 33 2 0.00 -6.309 -6.894 26.98767 # 91<->"Aromatic H-C"
392 33 2 0.00 -3.912 -6.859999999999999 27.62267 # 91<->"Aromatic H-C"
393 33 2 0.00 -2.603 -8.966 27.63467 # 91<->"Aromatic H-C"
394 33 2 0.00 -3.691 -11.106 27.01267 # 91<->"Aromatic H-C"
395 33 2 0.00 -6.088 -11.14 26.37767 # 91<->"Aromatic H-C"
396 33 2 0.00 -7.397 -9.034 26.36467 # 91<->"Aromatic H-C"
397 34 1 0.00 -5.739 1.189 26.99267 # 90<->"Aromatic C"
398 34 1 0.00 -4.386 1.208 27.35167 # 90<->"Aromatic C"
399 34 1 0.00 -3.6470000000000002 0.019 27.35867 # 90<->"Aromatic C"
400 34 1 0.00 -4.261 -1.189 27.00667 # 90<->"Aromatic C"
401 34 1 0.00 -5.614 -1.208 26.64867 # 90<->"Aromatic C"
402 34 1 0.00 -6.353 -0.019 26.64167 # 90<->"Aromatic C"
403 34 2 0.00 -6.309 2.106 26.98767 # 91<->"Aromatic H-C"
404 34 2 0.00 -3.912 2.14 27.62267 # 91<->"Aromatic H-C"
405 34 2 0.00 -2.603 0.034 27.63467 # 91<->"Aromatic H-C"
406 34 2 0.00 -3.691 -2.106 27.01267 # 91<->"Aromatic H-C"
407 34 2 0.00 -6.088 -2.14 26.37767 # 91<->"Aromatic H-C"
408 34 2 0.00 -7.397 -0.034 26.36467 # 91<->"Aromatic H-C"
409 35 1 0.00 -5.739 10.189 26.99267 # 90<->"Aromatic C"
410 35 1 0.00 -4.386 10.208 27.35167 # 90<->"Aromatic C"
411 35 1 0.00 -3.6470000000000002 9.019 27.35867 # 90<->"Aromatic C"
412 35 1 0.00 -4.261 7.811 27.00667 # 90<->"Aromatic C"
413 35 1 0.00 -5.614 7.792 26.64867 # 90<->"Aromatic C"
414 35 1 0.00 -6.353 8.981 26.64167 # 90<->"Aromatic C"
415 35 2 0.00 -6.309 11.106 26.98767 # 91<->"Aromatic H-C"
416 35 2 0.00 -3.912 11.14 27.62267 # 91<->"Aromatic H-C"
417 35 2 0.00 -2.603 9.034 27.63467 # 91<->"Aromatic H-C"
418 35 2 0.00 -3.691 6.894 27.01267 # 91<->"Aromatic H-C"
419 35 2 0.00 -6.088 6.859999999999999 26.37767 # 91<->"Aromatic H-C"
420 35 2 0.00 -7.397 8.966 26.36467 # 91<->"Aromatic H-C"
421 36 1 0.00 -5.739 19.189 26.99267 # 90<->"Aromatic C"
422 36 1 0.00 -4.386 19.208 27.35167 # 90<->"Aromatic C"
423 36 1 0.00 -3.6470000000000002 18.019 27.35867 # 90<->"Aromatic C"
424 36 1 0.00 -4.261 16.811 27.00667 # 90<->"Aromatic C"
425 36 1 0.00 -5.614 16.792 26.64867 # 90<->"Aromatic C"
426 36 1 0.00 -6.353 17.981 26.64167 # 90<->"Aromatic C"
427 36 2 0.00 -6.309 20.106 26.98767 # 91<->"Aromatic H-C"
428 36 2 0.00 -3.912 20.14 27.62267 # 91<->"Aromatic H-C"
429 36 2 0.00 -2.603 18.034 27.63467 # 91<->"Aromatic H-C"
430 36 2 0.00 -3.691 15.894 27.01267 # 91<->"Aromatic H-C"
431 36 2 0.00 -6.088 15.86 26.37767 # 91<->"Aromatic H-C"
432 36 2 0.00 -7.397 17.966 26.36467 # 91<->"Aromatic H-C"
433 37 1 0.00 -5.739 28.189 26.99267 # 90<->"Aromatic C"
434 37 1 0.00 -4.386 28.208 27.35167 # 90<->"Aromatic C"
435 37 1 0.00 -3.6470000000000002 27.019 27.35867 # 90<->"Aromatic C"
436 37 1 0.00 -4.261 25.811 27.00667 # 90<->"Aromatic C"
437 37 1 0.00 -5.614 25.792 26.64867 # 90<->"Aromatic C"
438 37 1 0.00 -6.353 26.981 26.64167 # 90<->"Aromatic C"
439 37 2 0.00 -6.309 29.106 26.98767 # 91<->"Aromatic H-C"
440 37 2 0.00 -3.912 29.14 27.62267 # 91<->"Aromatic H-C"
441 37 2 0.00 -2.603 27.034 27.63467 # 91<->"Aromatic H-C"
442 37 2 0.00 -3.691 24.894 27.01267 # 91<->"Aromatic H-C"
443 37 2 0.00 -6.088 24.86 26.37767 # 91<->"Aromatic H-C"
444 37 2 0.00 -7.397 26.966 26.36467 # 91<->"Aromatic H-C"
445 38 1 0.00 -5.739 28.189 17.99267 # 90<->"Aromatic C"
446 38 1 0.00 -4.386 28.208 18.35167 # 90<->"Aromatic C"
447 38 1 0.00 -3.6470000000000002 27.019 18.35867 # 90<->"Aromatic C"
448 38 1 0.00 -4.261 25.811 18.00667 # 90<->"Aromatic C"
449 38 1 0.00 -5.614 25.792 17.64867 # 90<->"Aromatic C"
450 38 1 0.00 -6.353 26.981 17.64167 # 90<->"Aromatic C"
451 38 2 0.00 -6.309 29.106 17.98767 # 91<->"Aromatic H-C"
452 38 2 0.00 -3.912 29.14 18.62267 # 91<->"Aromatic H-C"
453 38 2 0.00 -2.603 27.034 18.63467 # 91<->"Aromatic H-C"
454 38 2 0.00 -3.691 24.894 18.01267 # 91<->"Aromatic H-C"
455 38 2 0.00 -6.088 24.86 17.37767 # 91<->"Aromatic H-C"
456 38 2 0.00 -7.397 26.966 17.36467 # 91<->"Aromatic H-C"
457 39 1 0.00 -5.739 28.189 8.99267 # 90<->"Aromatic C"
458 39 1 0.00 -4.386 28.208 9.35167 # 90<->"Aromatic C"
459 39 1 0.00 -3.6470000000000002 27.019 9.35867 # 90<->"Aromatic C"
460 39 1 0.00 -4.261 25.811 9.00667 # 90<->"Aromatic C"
461 39 1 0.00 -5.614 25.792 8.64867 # 90<->"Aromatic C"
462 39 1 0.00 -6.353 26.981 8.64167 # 90<->"Aromatic C"
463 39 2 0.00 -6.309 29.106 8.98767 # 91<->"Aromatic H-C"
464 39 2 0.00 -3.912 29.14 9.62267 # 91<->"Aromatic H-C"
465 39 2 0.00 -2.603 27.034 9.63467 # 91<->"Aromatic H-C"
466 39 2 0.00 -3.691 24.894 9.01267 # 91<->"Aromatic H-C"
467 39 2 0.00 -6.088 24.86 8.37767 # 91<->"Aromatic H-C"
468 39 2 0.00 -7.397 26.966 8.36467 # 91<->"Aromatic H-C"
469 40 1 0.00 -5.739 28.189 -0.00733 # 90<->"Aromatic C"
470 40 1 0.00 -4.386 28.208 0.35167 # 90<->"Aromatic C"
471 40 1 0.00 -3.6470000000000002 27.019 0.35867 # 90<->"Aromatic C"
472 40 1 0.00 -4.261 25.811 0.00667 # 90<->"Aromatic C"
473 40 1 0.00 -5.614 25.792 -0.35133 # 90<->"Aromatic C"
474 40 1 0.00 -6.353 26.981 -0.35833 # 90<->"Aromatic C"
475 40 2 0.00 -6.309 29.106 -0.01233 # 91<->"Aromatic H-C"
476 40 2 0.00 -3.912 29.14 0.62267 # 91<->"Aromatic H-C"
477 40 2 0.00 -2.603 27.034 0.63467 # 91<->"Aromatic H-C"
478 40 2 0.00 -3.691 24.894 0.01267 # 91<->"Aromatic H-C"
479 40 2 0.00 -6.088 24.86 -0.62233 # 91<->"Aromatic H-C"
480 40 2 0.00 -7.397 26.966 -0.63533 # 91<->"Aromatic H-C"
481 41 1 0.00 -5.739 28.189 -9.00733 # 90<->"Aromatic C"
482 41 1 0.00 -4.386 28.208 -8.64833 # 90<->"Aromatic C"
483 41 1 0.00 -3.6470000000000002 27.019 -8.64133 # 90<->"Aromatic C"
484 41 1 0.00 -4.261 25.811 -8.99333 # 90<->"Aromatic C"
485 41 1 0.00 -5.614 25.792 -9.35133 # 90<->"Aromatic C"
486 41 1 0.00 -6.353 26.981 -9.35833 # 90<->"Aromatic C"
487 41 2 0.00 -6.309 29.106 -9.01233 # 91<->"Aromatic H-C"
488 41 2 0.00 -3.912 29.14 -8.37733 # 91<->"Aromatic H-C"
489 41 2 0.00 -2.603 27.034 -8.36533 # 91<->"Aromatic H-C"
490 41 2 0.00 -3.691 24.894 -8.98733 # 91<->"Aromatic H-C"
491 41 2 0.00 -6.088 24.86 -9.62233 # 91<->"Aromatic H-C"
492 41 2 0.00 -7.397 26.966 -9.63533 # 91<->"Aromatic H-C"
493 42 1 0.00 -5.739 28.189 -18.00733 # 90<->"Aromatic C"
494 42 1 0.00 -4.386 28.208 -17.64833 # 90<->"Aromatic C"
495 42 1 0.00 -3.6470000000000002 27.019 -17.64133 # 90<->"Aromatic C"
496 42 1 0.00 -4.261 25.811 -17.99333 # 90<->"Aromatic C"
497 42 1 0.00 -5.614 25.792 -18.35133 # 90<->"Aromatic C"
498 42 1 0.00 -6.353 26.981 -18.35833 # 90<->"Aromatic C"
499 42 2 0.00 -6.309 29.106 -18.01233 # 91<->"Aromatic H-C"
500 42 2 0.00 -3.912 29.14 -17.37733 # 91<->"Aromatic H-C"
501 42 2 0.00 -2.603 27.034 -17.36533 # 91<->"Aromatic H-C"
502 42 2 0.00 -3.691 24.894 -17.98733 # 91<->"Aromatic H-C"