LAMMPS Description

     1776  atoms
     1823  bonds
     2940  angles
     4183  dihedrals
     2400  impropers

     6  atom types
     16  bond types
     54  angle types
     168  dihedral types
     2  improper types

  -200.0 200.0 xlo xhi
  -200.0 200.0 ylo yhi
  -200.0 200.0 zlo zhi

Masses

    1 12.011 #CT "Alkane CH3-" 6 partial charge=-0.18
    2 12.011 #CT "Alkane -CH2-" 6 partial charge=-0.12
    3 1.008 #HC "Alkane H-C" 1 partial charge=0.06
    4 12.011 #CA "Aromatic C" 6 partial charge=-0.115
    5 1.008 #HA "Aromatic H-C" 1 partial charge=0.115
    6 12.011 #CA "Naphthalene Fusion C" 6 partial charge=0.0

Atoms # full

1 1 4 0.00 -41.201 -1.391 0.225
2 1 6 0.00 -40.005 -0.691 0.081
3 1 4 0.00 -38.781 -1.335 0.091
4 1 4 0.00 -37.589 -0.637 -0.054
5 1 4 0.00 -37.607 0.734 -0.212
6 1 4 0.00 -38.817 1.398 -0.225
7 1 6 0.00 -39.992 0.68 -0.079
8 1 4 0.00 -41.208 1.334 -0.091
9 1 4 0.00 -42.395 0.633 0.053
10 1 4 0.00 -42.417 -0.737 0.214
11 1 5 0.00 -41.164 -2.455 0.347
12 1 5 0.00 -38.811 -2.411 0.217
13 1 5 0.00 -36.663 -1.195 -0.038
14 1 5 0.00 -36.668 1.271 -0.325
15 1 5 0.00 -38.794 2.471 -0.351
16 1 5 0.00 -41.215 2.411 -0.216
17 1 5 0.00 -43.317 1.193 0.037
18 1 5 0.00 -43.356 -1.272 0.326
19 2 4 0.00 -41.201 -9.9084 0.225
20 2 6 0.00 -40.005 -9.208400000000001 0.081
21 2 4 0.00 -38.781 -9.8524 0.091
22 2 4 0.00 -37.589 -9.1544 -0.054
23 2 4 0.00 -37.607 -7.7834 -0.212
24 2 4 0.00 -38.817 -7.119400000000001 -0.225
25 2 6 0.00 -39.992 -7.837400000000001 -0.079
26 2 4 0.00 -41.208 -7.183400000000001 -0.091
27 2 4 0.00 -42.395 -7.8844 0.053
28 2 4 0.00 -42.417 -9.2544 0.214
29 2 5 0.00 -41.164 -10.9724 0.347
30 2 5 0.00 -38.811 -10.9284 0.217
31 2 5 0.00 -36.663 -9.7124 -0.038
32 2 5 0.00 -36.668 -7.2464 -0.325
33 2 5 0.00 -38.794 -6.0464 -0.351
34 2 5 0.00 -41.215 -6.106400000000001 -0.216
35 2 5 0.00 -43.317 -7.324400000000001 0.037
36 2 5 0.00 -43.356 -9.7894 0.326
37 3 4 0.00 -41.201 -9.9084 8.7424
38 3 6 0.00 -40.005 -9.208400000000001 8.5984
39 3 4 0.00 -38.781 -9.8524 8.6084
40 3 4 0.00 -37.589 -9.1544 8.4634
41 3 4 0.00 -37.607 -7.7834 8.3054
42 3 4 0.00 -38.817 -7.119400000000001 8.2924
43 3 6 0.00 -39.992 -7.837400000000001 8.4384
44 3 4 0.00 -41.208 -7.183400000000001 8.426400000000001
45 3 4 0.00 -42.395 -7.8844 8.570400000000001
46 3 4 0.00 -42.417 -9.2544 8.7314
47 3 5 0.00 -41.164 -10.9724 8.8644
48 3 5 0.00 -38.811 -10.9284 8.7344
49 3 5 0.00 -36.663 -9.7124 8.4794
50 3 5 0.00 -36.668 -7.2464 8.192400000000001
51 3 5 0.00 -38.794 -6.0464 8.1664
52 3 5 0.00 -41.215 -6.106400000000001 8.301400000000001
53 3 5 0.00 -43.317 -7.324400000000001 8.554400000000001
54 3 5 0.00 -43.356 -9.7894 8.8434
55 4 4 0.00 -41.201 -1.391 8.7424
56 4 6 0.00 -40.005 -0.691 8.5984
57 4 4 0.00 -38.781 -1.335 8.6084
58 4 4 0.00 -37.589 -0.637 8.4634
59 4 4 0.00 -37.607 0.734 8.3054
60 4 4 0.00 -38.817 1.398 8.2924
61 4 6 0.00 -39.992 0.68 8.4384
62 4 4 0.00 -41.208 1.334 8.426400000000001
63 4 4 0.00 -42.395 0.633 8.570400000000001
64 4 4 0.00 -42.417 -0.737 8.7314
65 4 5 0.00 -41.164 -2.455 8.8644
66 4 5 0.00 -38.811 -2.411 8.7344
67 4 5 0.00 -36.663 -1.195 8.4794
68 4 5 0.00 -36.668 1.271 8.192400000000001
69 4 5 0.00 -38.794 2.471 8.1664
70 4 5 0.00 -41.215 2.411 8.301400000000001
71 4 5 0.00 -43.317 1.193 8.554400000000001
72 4 5 0.00 -43.356 -1.272 8.8434
73 5 4 0.00 -41.201 7.1264 8.7424
74 5 6 0.00 -40.005 7.8264000000000005 8.5984
75 5 4 0.00 -38.781 7.1824 8.6084
76 5 4 0.00 -37.589 7.8804 8.4634
77 5 4 0.00 -37.607 9.2514 8.3054
78 5 4 0.00 -38.817 9.9154 8.2924
79 5 6 0.00 -39.992 9.1974 8.4384
80 5 4 0.00 -41.208 9.8514 8.426400000000001
81 5 4 0.00 -42.395 9.150400000000001 8.570400000000001
82 5 4 0.00 -42.417 7.7804 8.7314
83 5 5 0.00 -41.164 6.0624 8.8644
84 5 5 0.00 -38.811 6.106400000000001 8.7344
85 5 5 0.00 -36.663 7.3224 8.4794
86 5 5 0.00 -36.668 9.7884 8.192400000000001
87 5 5 0.00 -38.794 10.9884 8.1664
88 5 5 0.00 -41.215 10.9284 8.301400000000001
89 5 5 0.00 -43.317 9.7104 8.554400000000001
90 5 5 0.00 -43.356 7.2454 8.8434
91 6 4 0.00 -41.201 7.1264 0.225
92 6 6 0.00 -40.005 7.8264000000000005 0.081
93 6 4 0.00 -38.781 7.1824 0.091
94 6 4 0.00 -37.589 7.8804 -0.054
95 6 4 0.00 -37.607 9.2514 -0.212
96 6 4 0.00 -38.817 9.9154 -0.225
97 6 6 0.00 -39.992 9.1974 -0.079
98 6 4 0.00 -41.208 9.8514 -0.091
99 6 4 0.00 -42.395 9.150400000000001 0.053
100 6 4 0.00 -42.417 7.7804 0.214
101 6 5 0.00 -41.164 6.0624 0.347
102 6 5 0.00 -38.811 6.106400000000001 0.217
103 6 5 0.00 -36.663 7.3224 -0.038
104 6 5 0.00 -36.668 9.7884 -0.325
105 6 5 0.00 -38.794 10.9884 -0.351
106 6 5 0.00 -41.215 10.9284 -0.216
107 6 5 0.00 -43.317 9.7104 0.037
108 6 5 0.00 -43.356 7.2454 0.326
109 7 4 0.00 -41.201 7.1264 -8.2924
110 7 6 0.00 -40.005 7.8264000000000005 -8.4364
111 7 4 0.00 -38.781 7.1824 -8.426400000000001
112 7 4 0.00 -37.589 7.8804 -8.5714
113 7 4 0.00 -37.607 9.2514 -8.7294
114 7 4 0.00 -38.817 9.9154 -8.7424
115 7 6 0.00 -39.992 9.1974 -8.596400000000001
116 7 4 0.00 -41.208 9.8514 -8.6084
117 7 4 0.00 -42.395 9.150400000000001 -8.4644
118 7 4 0.00 -42.417 7.7804 -8.3034
119 7 5 0.00 -41.164 6.0624 -8.1704
120 7 5 0.00 -38.811 6.106400000000001 -8.3004
121 7 5 0.00 -36.663 7.3224 -8.5554
122 7 5 0.00 -36.668 9.7884 -8.8424
123 7 5 0.00 -38.794 10.9884 -8.868400000000001
124 7 5 0.00 -41.215 10.9284 -8.7334
125 7 5 0.00 -43.317 9.7104 -8.4804
126 7 5 0.00 -43.356 7.2454 -8.1914
127 8 4 0.00 -41.201 -1.391 -8.2924
128 8 6 0.00 -40.005 -0.691 -8.4364
129 8 4 0.00 -38.781 -1.335 -8.426400000000001
130 8 4 0.00 -37.589 -0.637 -8.5714
131 8 4 0.00 -37.607 0.734 -8.7294
132 8 4 0.00 -38.817 1.398 -8.7424
133 8 6 0.00 -39.992 0.68 -8.596400000000001
134 8 4 0.00 -41.208 1.334 -8.6084
135 8 4 0.00 -42.395 0.633 -8.4644
136 8 4 0.00 -42.417 -0.737 -8.3034
137 8 5 0.00 -41.164 -2.455 -8.1704
138 8 5 0.00 -38.811 -2.411 -8.3004
139 8 5 0.00 -36.663 -1.195 -8.5554
140 8 5 0.00 -36.668 1.271 -8.8424
141 8 5 0.00 -38.794 2.471 -8.868400000000001
142 8 5 0.00 -41.215 2.411 -8.7334
143 8 5 0.00 -43.317 1.193 -8.4804
144 8 5 0.00 -43.356 -1.272 -8.1914
145 9 4 0.00 -41.201 -9.9084 -8.2924
146 9 6 0.00 -40.005 -9.208400000000001 -8.4364
147 9 4 0.00 -38.781 -9.8524 -8.426400000000001
148 9 4 0.00 -37.589 -9.1544 -8.5714
149 9 4 0.00 -37.607 -7.7834 -8.7294
150 9 4 0.00 -38.817 -7.119400000000001 -8.7424
151 9 6 0.00 -39.992 -7.837400000000001 -8.596400000000001
152 9 4 0.00 -41.208 -7.183400000000001 -8.6084
153 9 4 0.00 -42.395 -7.8844 -8.4644
154 9 4 0.00 -42.417 -9.2544 -8.3034
155 9 5 0.00 -41.164 -10.9724 -8.1704
156 9 5 0.00 -38.811 -10.9284 -8.3004
157 9 5 0.00 -36.663 -9.7124 -8.5554
158 9 5 0.00 -36.668 -7.2464 -8.8424
159 9 5 0.00 -38.794 -6.0464 -8.868400000000001
160 9 5 0.00 -41.215 -6.106400000000001 -8.7334
161 9 5 0.00 -43.317 -7.324400000000001 -8.4804
162 9 5 0.00 -43.356 -9.7894 -8.1914
163 10 4 0.00 -41.201 -18.4259 -8.2924
164 10 6 0.00 -40.005 -17.7259 -8.4364
165 10 4 0.00 -38.781 -18.3699 -8.426400000000001
166 10 4 0.00 -37.589 -17.6719 -8.5714
167 10 4 0.00 -37.607 -16.3009 -8.7294
168 10 4 0.00 -38.817 -15.6369 -8.7424
169 10 6 0.00 -39.992 -16.3549 -8.596400000000001
170 10 4 0.00 -41.208 -15.7009 -8.6084
171 10 4 0.00 -42.395 -16.4019 -8.4644
172 10 4 0.00 -42.417 -17.7719 -8.3034
173 10 5 0.00 -41.164 -19.4899 -8.1704
174 10 5 0.00 -38.811 -19.4459 -8.3004
175 10 5 0.00 -36.663 -18.2299 -8.5554
176 10 5 0.00 -36.668 -15.7639 -8.8424
177 10 5 0.00 -38.794 -14.5639 -8.868400000000001
178 10 5 0.00 -41.215 -14.6239 -8.7334
179 10 5 0.00 -43.317 -15.8419 -8.4804
180 10 5 0.00 -43.356 -18.3069 -8.1914
181 11 4 0.00 -41.201 -18.4259 0.225
182 11 6 0.00 -40.005 -17.7259 0.081
183 11 4 0.00 -38.781 -18.3699 0.091
184 11 4 0.00 -37.589 -17.6719 -0.054
185 11 4 0.00 -37.607 -16.3009 -0.212
186 11 4 0.00 -38.817 -15.6369 -0.225
187 11 6 0.00 -39.992 -16.3549 -0.079
188 11 4 0.00 -41.208 -15.7009 -0.091
189 11 4 0.00 -42.395 -16.4019 0.053
190 11 4 0.00 -42.417 -17.7719 0.214
191 11 5 0.00 -41.164 -19.4899 0.347
192 11 5 0.00 -38.811 -19.4459 0.217
193 11 5 0.00 -36.663 -18.2299 -0.038
194 11 5 0.00 -36.668 -15.7639 -0.325
195 11 5 0.00 -38.794 -14.5639 -0.351
196 11 5 0.00 -41.215 -14.6239 -0.216
197 11 5 0.00 -43.317 -15.8419 0.037
198 11 5 0.00 -43.356 -18.3069 0.326
199 12 4 0.00 -41.201 -18.4259 8.7424
200 12 6 0.00 -40.005 -17.7259 8.5984
201 12 4 0.00 -38.781 -18.3699 8.6084
202 12 4 0.00 -37.589 -17.6719 8.4634
203 12 4 0.00 -37.607 -16.3009 8.3054
204 12 4 0.00 -38.817 -15.6369 8.2924
205 12 6 0.00 -39.992 -16.3549 8.4384
206 12 4 0.00 -41.208 -15.7009 8.426400000000001
207 12 4 0.00 -42.395 -16.4019 8.570400000000001
208 12 4 0.00 -42.417 -17.7719 8.7314
209 12 5 0.00 -41.164 -19.4899 8.8644
210 12 5 0.00 -38.811 -19.4459 8.7344
211 12 5 0.00 -36.663 -18.2299 8.4794
212 12 5 0.00 -36.668 -15.7639 8.192400000000001
213 12 5 0.00 -38.794 -14.5639 8.1664
214 12 5 0.00 -41.215 -14.6239 8.301400000000001
215 12 5 0.00 -43.317 -15.8419 8.554400000000001
216 12 5 0.00 -43.356 -18.3069 8.8434
217 13 4 0.00 -41.201 -18.4259 17.259900000000002
218 13 6 0.00 -40.005 -17.7259 17.1159
219 13 4 0.00 -38.781 -18.3699 17.1259
220 13 4 0.00 -37.589 -17.6719 16.980900000000002
221 13 4 0.00 -37.607 -16.3009 16.8229
222 13 4 0.00 -38.817 -15.6369 16.8099
223 13 6 0.00 -39.992 -16.3549 16.9559
224 13 4 0.00 -41.208 -15.7009 16.9439
225 13 4 0.00 -42.395 -16.4019 17.0879
226 13 4 0.00 -42.417 -17.7719 17.2489
227 13 5 0.00 -41.164 -19.4899 17.3819
228 13 5 0.00 -38.811 -19.4459 17.2519
229 13 5 0.00 -36.663 -18.2299 16.9969
230 13 5 0.00 -36.668 -15.7639 16.7099
231 13 5 0.00 -38.794 -14.5639 16.6839
232 13 5 0.00 -41.215 -14.6239 16.8189
233 13 5 0.00 -43.317 -15.8419 17.0719
234 13 5 0.00 -43.356 -18.3069 17.3609
235 14 4 0.00 -41.201 -9.9084 17.259900000000002
236 14 6 0.00 -40.005 -9.208400000000001 17.1159
237 14 4 0.00 -38.781 -9.8524 17.1259
238 14 4 0.00 -37.589 -9.1544 16.980900000000002
239 14 4 0.00 -37.607 -7.7834 16.8229
240 14 4 0.00 -38.817 -7.119400000000001 16.8099
241 14 6 0.00 -39.992 -7.837400000000001 16.9559
242 14 4 0.00 -41.208 -7.183400000000001 16.9439
243 14 4 0.00 -42.395 -7.8844 17.0879
244 14 4 0.00 -42.417 -9.2544 17.2489
245 14 5 0.00 -41.164 -10.9724 17.3819
246 14 5 0.00 -38.811 -10.9284 17.2519
247 14 5 0.00 -36.663 -9.7124 16.9969
248 14 5 0.00 -36.668 -7.2464 16.7099
249 14 5 0.00 -38.794 -6.0464 16.6839
250 14 5 0.00 -41.215 -6.106400000000001 16.8189
251 14 5 0.00 -43.317 -7.324400000000001 17.0719
252 14 5 0.00 -43.356 -9.7894 17.3609
253 15 4 0.00 -41.201 -1.391 17.259900000000002
254 15 6 0.00 -40.005 -0.691 17.1159
255 15 4 0.00 -38.781 -1.335 17.1259
256 15 4 0.00 -37.589 -0.637 16.980900000000002
257 15 4 0.00 -37.607 0.734 16.8229
258 15 4 0.00 -38.817 1.398 16.8099
259 15 6 0.00 -39.992 0.68 16.9559
260 15 4 0.00 -41.208 1.334 16.9439
261 15 4 0.00 -42.395 0.633 17.0879
262 15 4 0.00 -42.417 -0.737 17.2489
263 15 5 0.00 -41.164 -2.455 17.3819
264 15 5 0.00 -38.811 -2.411 17.2519
265 15 5 0.00 -36.663 -1.195 16.9969
266 15 5 0.00 -36.668 1.271 16.7099
267 15 5 0.00 -38.794 2.471 16.6839
268 15 5 0.00 -41.215 2.411 16.8189
269 15 5 0.00 -43.317 1.193 17.0719
270 15 5 0.00 -43.356 -1.272 17.3609
271 16 4 0.00 -41.201 7.1264 17.259900000000002
272 16 6 0.00 -40.005 7.8264000000000005 17.1159
273 16 4 0.00 -38.781 7.1824 17.1259
274 16 4 0.00 -37.589 7.8804 16.980900000000002
275 16 4 0.00 -37.607 9.2514 16.8229
276 16 4 0.00 -38.817 9.9154 16.8099
277 16 6 0.00 -39.992 9.1974 16.9559
278 16 4 0.00 -41.208 9.8514 16.9439
279 16 4 0.00 -42.395 9.150400000000001 17.0879
280 16 4 0.00 -42.417 7.7804 17.2489
281 16 5 0.00 -41.164 6.0624 17.3819
282 16 5 0.00 -38.811 6.106400000000001 17.2519
283 16 5 0.00 -36.663 7.3224 16.9969
284 16 5 0.00 -36.668 9.7884 16.7099
285 16 5 0.00 -38.794 10.9884 16.6839
286 16 5 0.00 -41.215 10.9284 16.8189
287 16 5 0.00 -43.317 9.7104 17.0719
288 16 5 0.00 -43.356 7.2454 17.3609
289 17 4 0.00 -41.201 15.6439 17.259900000000002
290 17 6 0.00 -40.005 16.3439 17.1159
291 17 4 0.00 -38.781 15.6999 17.1259
292 17 4 0.00 -37.589 16.3979 16.980900000000002
293 17 4 0.00 -37.607 17.768900000000002 16.8229
294 17 4 0.00 -38.817 18.4329 16.8099
295 17 6 0.00 -39.992 17.7149 16.9559
296 17 4 0.00 -41.208 18.3689 16.9439
297 17 4 0.00 -42.395 17.6679 17.0879
298 17 4 0.00 -42.417 16.297900000000002 17.2489
299 17 5 0.00 -41.164 14.5799 17.3819
300 17 5 0.00 -38.811 14.6239 17.2519
301 17 5 0.00 -36.663 15.8399 16.9969
302 17 5 0.00 -36.668 18.3059 16.7099
303 17 5 0.00 -38.794 19.5059 16.6839
304 17 5 0.00 -41.215 19.4459 16.8189
305 17 5 0.00 -43.317 18.2279 17.0719
306 17 5 0.00 -43.356 15.7629 17.3609
307 18 4 0.00 -41.201 15.6439 8.7424
308 18 6 0.00 -40.005 16.3439 8.5984
309 18 4 0.00 -38.781 15.6999 8.6084
310 18 4 0.00 -37.589 16.3979 8.4634
311 18 4 0.00 -37.607 17.768900000000002 8.3054
312 18 4 0.00 -38.817 18.4329 8.2924
313 18 6 0.00 -39.992 17.7149 8.4384
314 18 4 0.00 -41.208 18.3689 8.426400000000001
315 18 4 0.00 -42.395 17.6679 8.570400000000001
316 18 4 0.00 -42.417 16.297900000000002 8.7314
317 18 5 0.00 -41.164 14.5799 8.8644
318 18 5 0.00 -38.811 14.6239 8.7344
319 18 5 0.00 -36.663 15.8399 8.4794
320 18 5 0.00 -36.668 18.3059 8.192400000000001
321 18 5 0.00 -38.794 19.5059 8.1664
322 18 5 0.00 -41.215 19.4459 8.301400000000001
323 18 5 0.00 -43.317 18.2279 8.554400000000001
324 18 5 0.00 -43.356 15.7629 8.8434
325 19 4 0.00 -41.201 15.6439 0.225
326 19 6 0.00 -40.005 16.3439 0.081
327 19 4 0.00 -38.781 15.6999 0.091
328 19 4 0.00 -37.589 16.3979 -0.054
329 19 4 0.00 -37.607 17.768900000000002 -0.212
330 19 4 0.00 -38.817 18.4329 -0.225
331 19 6 0.00 -39.992 17.7149 -0.079
332 19 4 0.00 -41.208 18.3689 -0.091
333 19 4 0.00 -42.395 17.6679 0.053
334 19 4 0.00 -42.417 16.297900000000002 0.214
335 19 5 0.00 -41.164 14.5799 0.347
336 19 5 0.00 -38.811 14.6239 0.217
337 19 5 0.00 -36.663 15.8399 -0.038
338 19 5 0.00 -36.668 18.3059 -0.325
339 19 5 0.00 -38.794 19.5059 -0.351
340 19 5 0.00 -41.215 19.4459 -0.216
341 19 5 0.00 -43.317 18.2279 0.037
342 19 5 0.00 -43.356 15.7629 0.326
343 20 4 0.00 -41.201 15.6439 -8.2924
344 20 6 0.00 -40.005 16.3439 -8.4364
345 20 4 0.00 -38.781 15.6999 -8.426400000000001
346 20 4 0.00 -37.589 16.3979 -8.5714
347 20 4 0.00 -37.607 17.768900000000002 -8.7294
348 20 4 0.00 -38.817 18.4329 -8.7424
349 20 6 0.00 -39.992 17.7149 -8.596400000000001
350 20 4 0.00 -41.208 18.3689 -8.6084
351 20 4 0.00 -42.395 17.6679 -8.4644
352 20 4 0.00 -42.417 16.297900000000002 -8.3034
353 20 5 0.00 -41.164 14.5799 -8.1704
354 20 5 0.00 -38.811 14.6239 -8.3004
355 20 5 0.00 -36.663 15.8399 -8.5554
356 20 5 0.00 -36.668 18.3059 -8.8424
357 20 5 0.00 -38.794 19.5059 -8.868400000000001
358 20 5 0.00 -41.215 19.4459 -8.7334
359 20 5 0.00 -43.317 18.2279 -8.4804
360 20 5 0.00 -43.356 15.7629 -8.1914
361 21 4 0.00 -41.201 15.6439 -16.8099
362 21 6 0.00 -40.005 16.3439 -16.9539
363 21 4 0.00 -38.781 15.6999 -16.9439
364 21 4 0.00 -37.589 16.3979 -17.0889
365 21 4 0.00 -37.607 17.768900000000002 -17.2469
366 21 4 0.00 -38.817 18.4329 -17.259900000000002
367 21 6 0.00 -39.992 17.7149 -17.1139
368 21 4 0.00 -41.208 18.3689 -17.1259
369 21 4 0.00 -42.395 17.6679 -16.9819
370 21 4 0.00 -42.417 16.297900000000002 -16.8209
371 21 5 0.00 -41.164 14.5799 -16.6879
372 21 5 0.00 -38.811 14.6239 -16.8179
373 21 5 0.00 -36.663 15.8399 -17.0729
374 21 5 0.00 -36.668 18.3059 -17.3599
375 21 5 0.00 -38.794 19.5059 -17.3859
376 21 5 0.00 -41.215 19.4459 -17.2509
377 21 5 0.00 -43.317 18.2279 -16.9979
378 21 5 0.00 -43.356 15.7629 -16.7089
379 22 4 0.00 -41.201 7.1264 -16.8099
380 22 6 0.00 -40.005 7.8264000000000005 -16.9539
381 22 4 0.00 -38.781 7.1824 -16.9439
382 22 4 0.00 -37.589 7.8804 -17.0889
383 22 4 0.00 -37.607 9.2514 -17.2469
384 22 4 0.00 -38.817 9.9154 -17.259900000000002
385 22 6 0.00 -39.992 9.1974 -17.1139
386 22 4 0.00 -41.208 9.8514 -17.1259
387 22 4 0.00 -42.395 9.150400000000001 -16.9819
388 22 4 0.00 -42.417 7.7804 -16.8209
389 22 5 0.00 -41.164 6.0624 -16.6879
390 22 5 0.00 -38.811 6.106400000000001 -16.8179
391 22 5 0.00 -36.663 7.3224 -17.0729
392 22 5 0.00 -36.668 9.7884 -17.3599
393 22 5 0.00 -38.794 10.9884 -17.3859
394 22 5 0.00 -41.215 10.9284 -17.2509
395 22 5 0.00 -43.317 9.7104 -16.9979
396 22 5 0.00 -43.356 7.2454 -16.7089
397 23 4 0.00 -41.201 -1.391 -16.8099
398 23 6 0.00 -40.005 -0.691 -16.9539
399 23 4 0.00 -38.781 -1.335 -16.9439
400 23 4 0.00 -37.589 -0.637 -17.0889
401 23 4 0.00 -37.607 0.734 -17.2469
402 23 4 0.00 -38.817 1.398 -17.259900000000002
403 23 6 0.00 -39.992 0.68 -17.1139
404 23 4 0.00 -41.208 1.334 -17.1259
405 23 4 0.00 -42.395 0.633 -16.9819
406 23 4 0.00 -42.417 -0.737 -16.8209
407 23 5 0.00 -41.164 -2.455 -16.6879
408 23 5 0.00 -38.811 -2.411 -16.8179
409 23 5 0.00 -36.663 -1.195 -17.0729
410 23 5 0.00 -36.668 1.271 -17.3599
411 23 5 0.00 -38.794 2.471 -17.3859
412 23 5 0.00 -41.215 2.411 -17.2509
413 23 5 0.00 -43.317 1.193 -16.9979
414 23 5 0.00 -43.356 -1.272 -16.7089
415 24 4 0.00 -41.201 -9.9084 -16.8099
416 24 6 0.00 -40.005 -9.208400000000001 -16.9539
417 24 4 0.00 -38.781 -9.8524 -16.9439
418 24 4 0.00 -37.589 -9.1544 -17.0889
419 24 4 0.00 -37.607 -7.7834 -17.2469
420 24 4 0.00 -38.817 -7.119400000000001 -17.259900000000002
421 24 6 0.00 -39.992 -7.837400000000001 -17.1139
422 24 4 0.00 -41.208 -7.183400000000001 -17.1259
423 24 4 0.00 -42.395 -7.8844 -16.9819
424 24 4 0.00 -42.417 -9.2544 -16.8209
425 24 5 0.00 -41.164 -10.9724 -16.6879
426 24 5 0.00 -38.811 -10.9284 -16.8179
427 24 5 0.00 -36.663 -9.7124 -17.0729
428 24 5 0.00 -36.668 -7.2464 -17.3599
429 24 5 0.00 -38.794 -6.0464 -17.3859
430 24 5 0.00 -41.215 -6.106400000000001 -17.2509
431 24 5 0.00 -43.317 -7.324400000000001 -16.9979
432 24 5 0.00 -43.356 -9.7894 -16.7089
433 25 4 0.00 -41.201 -18.4259 -16.8099
434 25 6 0.00 -40.005 -17.7259 -16.9539
435 25 4 0.00 -38.781 -18.3699 -16.9439
436 25 4 0.00 -37.589 -17.6719 -17.0889
437 25 4 0.00 -37.607 -16.3009 -17.2469
438 25 4 0.00 -38.817 -15.6369 -17.259900000000002
439 25 6 0.00 -39.992 -16.3549 -17.1139
440 25 4 0.00 -41.208 -15.7009 -17.1259
441 25 4 0.00 -42.395 -16.4019 -16.9819
442 25 4 0.00 -42.417 -17.7719 -16.8209
443 25 5 0.00 -41.164 -19.4899 -16.6879
444 25 5 0.00 -38.811 -19.4459 -16.8179
445 25 5 0.00 -36.663 -18.2299 -17.0729
446 25 5 0.00 -36.668 -15.7639 -17.3599
447 25 5 0.00 -38.794 -14.5639 -17.3859
448 25 5 0.00 -41.215 -14.6239 -17.2509
449 25 5 0.00 -43.317 -15.8419 -16.9979
450 25 5 0.00 -43.356 -18.3069 -16.7089
451 26 4 0.00 -41.201 -26.9433 -16.8099
452 26 6 0.00 -40.005 -26.243299999999998 -16.9539
453 26 4 0.00 -38.781 -26.8873 -16.9439
454 26 4 0.00 -37.589 -26.1893 -17.0889
455 26 4 0.00 -37.607 -24.8183 -17.2469
456 26 4 0.00 -38.817 -24.1543 -17.259900000000002
457 26 6 0.00 -39.992 -24.8723 -17.1139
458 26 4 0.00 -41.208 -24.2183 -17.1259
459 26 4 0.00 -42.395 -24.9193 -16.9819
460 26 4 0.00 -42.417 -26.289299999999997 -16.8209
461 26 5 0.00 -41.164 -28.0073 -16.6879
462 26 5 0.00 -38.811 -27.9633 -16.8179
463 26 5 0.00 -36.663 -26.7473 -17.0729
464 26 5 0.00 -36.668 -24.281299999999998 -17.3599
465 26 5 0.00 -38.794 -23.0813 -17.3859
466 26 5 0.00 -41.215 -23.141299999999998 -17.2509
467 26 5 0.00 -43.317 -24.359299999999998 -16.9979
468 26 5 0.00 -43.356 -26.824299999999997 -16.7089
469 27 4 0.00 -41.201 -26.9433 -8.2924
470 27 6 0.00 -40.005 -26.243299999999998 -8.4364
471 27 4 0.00 -38.781 -26.8873 -8.426400000000001
472 27 4 0.00 -37.589 -26.1893 -8.5714
473 27 4 0.00 -37.607 -24.8183 -8.7294
474 27 4 0.00 -38.817 -24.1543 -8.7424
475 27 6 0.00 -39.992 -24.8723 -8.596400000000001
476 27 4 0.00 -41.208 -24.2183 -8.6084
477 27 4 0.00 -42.395 -24.9193 -8.4644
478 27 4 0.00 -42.417 -26.289299999999997 -8.3034
479 27 5 0.00 -41.164 -28.0073 -8.1704
480 27 5 0.00 -38.811 -27.9633 -8.3004
481 27 5 0.00 -36.663 -26.7473 -8.5554
482 27 5 0.00 -36.668 -24.281299999999998 -8.8424
483 27 5 0.00 -38.794 -23.0813 -8.868400000000001
484 27 5 0.00 -41.215 -23.141299999999998 -8.7334
485 27 5 0.00 -43.317 -24.359299999999998 -8.4804
486 27 5 0.00 -43.356 -26.824299999999997 -8.1914
487 28 4 0.00 -41.201 -26.9433 0.225
488 28 6 0.00 -40.005 -26.243299999999998 0.081
489 28 4 0.00 -38.781 -26.8873 0.091
490 28 4 0.00 -37.589 -26.1893 -0.054
491 28 4 0.00 -37.607 -24.8183 -0.212
492 28 4 0.00 -38.817 -24.1543 -0.225
493 28 6 0.00 -39.992 -24.8723 -0.079
494 28 4 0.00 -41.208 -24.2183 -0.091
495 28 4 0.00 -42.395 -24.9193 0.053
496 28 4 0.00 -42.417 -26.289299999999997 0.214
497 28 5 0.00 -41.164 -28.0073 0.347
498 28 5 0.00 -38.811 -27.9633 0.217
499 28 5 0.00 -36.663 -26.7473 -0.038
500 28 5 0.00 -36.668 -24.281299999999998 -0.325
501 28 5 0.00 -38.794 -23.0813 -0.351
502 28 5 0.00 -41.215 -23.141299999999998 -0.216
503 28 5 0.00 -43.317 -24.359299999999998 0.037
504 28 5 0.00 -43.356 -26.824299999999997 0.326
505 29 4 0.00 -41.201 -26.9433 8.7424
506 29 6 0.00 -40.005 -26.243299999999998 8.5984
507 29 4 0.00 -38.781 -26.8873 8.6084
508 29 4 0.00 -37.589 -26.1893 8.4634
509 29 4 0.00 -37.607 -24.8183 8.3054
510 29 4 0.00 -38.817 -24.1543 8.2924
511 29 6 0.00 -39.992 -24.8723 8.4384
512 29 4 0.00 -41.208 -24.2183 8.426400000000001
513 29 4 0.00 -42.395 -24.9193 8.570400000000001
514 29 4 0.00 -42.417 -26.289299999999997 8.7314
515 29 5 0.00 -41.164 -28.0073 8.8644
516 29 5 0.00 -38.811 -27.9633 8.7344
517 29 5 0.00 -36.663 -26.7473 8.4794
518 29 5 0.00 -36.668 -24.281299999999998 8.192400000000001
519 29 5 0.00 -38.794 -23.0813 8.1664
520 29 5 0.00 -41.215 -23.141299999999998 8.301400000000001
521 29 5 0.00 -43.317 -24.359299999999998 8.554400000000001
522 29 5 0.00 -43.356 -26.824299999999997 8.8434
523 30 4 0.00 -41.201 -26.9433 17.259900000000002
524 30 6 0.00 -40.005 -26.243299999999998 17.1159
525 30 4 0.00 -38.781 -26.8873 17.1259
526 30 4 0.00 -37.589 -26.1893 16.980900000000002
527 30 4 0.00 -37.607 -24.8183 16.8229
528 30 4 0.00 -38.817 -24.1543 16.8099
529 30 6 0.00 -39.992 -24.8723 16.9559
530 30 4 0.00 -41.208 -24.2183 16.9439
531 30 4 0.00 -42.395 -24.9193 17.0879
532 30 4 0.00 -42.417 -26.289299999999997 17.2489
533 30 5 0.00 -41.164 -28.0073 17.3819
534 30 5 0.00 -38.811 -27.9633 17.2519
535 30 5 0.00 -36.663 -26.7473 16.9969
536 30 5 0.00 -36.668 -24.281299999999998 16.7099
537 30 5 0.00 -38.794 -23.0813 16.6839
538 30 5 0.00 -41.215 -23.141299999999998 16.8189
539 30 5 0.00 -43.317 -24.359299999999998 17.0719
540 30 5 0.00 -43.356 -26.824299999999997 17.3609
541 31 4 0.00 -41.201 -26.9433 25.7773
542 31 6 0.00 -40.005 -26.243299999999998 25.6333
543 31 4 0.00 -38.781 -26.8873 25.6433
544 31 4 0.00 -37.589 -26.1893 25.4983
545 31 4 0.00 -37.607 -24.8183 25.3403
546 31 4 0.00 -38.817 -24.1543 25.327299999999997
547 31 6 0.00 -39.992 -24.8723 25.4733
548 31 4 0.00 -41.208 -24.2183 25.461299999999998
549 31 4 0.00 -42.395 -24.9193 25.6053
550 31 4 0.00 -42.417 -26.289299999999997 25.766299999999998
551 31 5 0.00 -41.164 -28.0073 25.8993
552 31 5 0.00 -38.811 -27.9633 25.769299999999998
553 31 5 0.00 -36.663 -26.7473 25.5143
554 31 5 0.00 -36.668 -24.281299999999998 25.2273
555 31 5 0.00 -38.794 -23.0813 25.2013
556 31 5 0.00 -41.215 -23.141299999999998 25.336299999999998
557 31 5 0.00 -43.317 -24.359299999999998 25.589299999999998
558 31 5 0.00 -43.356 -26.824299999999997 25.8783
559 32 4 0.00 -41.201 -18.4259 25.7773
560 32 6 0.00 -40.005 -17.7259 25.6333
561 32 4 0.00 -38.781 -18.3699 25.6433
562 32 4 0.00 -37.589 -17.6719 25.4983
563 32 4 0.00 -37.607 -16.3009 25.3403
564 32 4 0.00 -38.817 -15.6369 25.327299999999997
565 32 6 0.00 -39.992 -16.3549 25.4733
566 32 4 0.00 -41.208 -15.7009 25.461299999999998
567 32 4 0.00 -42.395 -16.4019 25.6053
568 32 4 0.00 -42.417 -17.7719 25.766299999999998
569 32 5 0.00 -41.164 -19.4899 25.8993
570 32 5 0.00 -38.811 -19.4459 25.769299999999998
571 32 5 0.00 -36.663 -18.2299 25.5143
572 32 5 0.00 -36.668 -15.7639 25.2273
573 32 5 0.00 -38.794 -14.5639 25.2013
574 32 5 0.00 -41.215 -14.6239 25.336299999999998
575 32 5 0.00 -43.317 -15.8419 25.589299999999998
576 32 5 0.00 -43.356 -18.3069 25.8783
577 33 4 0.00 -41.201 -9.9084 25.7773
578 33 6 0.00 -40.005 -9.208400000000001 25.6333
579 33 4 0.00 -38.781 -9.8524 25.6433
580 33 4 0.00 -37.589 -9.1544 25.4983
581 33 4 0.00 -37.607 -7.7834 25.3403
582 33 4 0.00 -38.817 -7.119400000000001 25.327299999999997
583 33 6 0.00 -39.992 -7.837400000000001 25.4733
584 33 4 0.00 -41.208 -7.183400000000001 25.461299999999998
585 33 4 0.00 -42.395 -7.8844 25.6053
586 33 4 0.00 -42.417 -9.2544 25.766299999999998
587 33 5 0.00 -41.164 -10.9724 25.8993
588 33 5 0.00 -38.811 -10.9284 25.769299999999998
589 33 5 0.00 -36.663 -9.7124 25.5143
590 33 5 0.00 -36.668 -7.2464 25.2273
591 33 5 0.00 -38.794 -6.0464 25.2013
592 33 5 0.00 -41.215 -6.106400000000001 25.336299999999998
593 33 5 0.00 -43.317 -7.324400000000001 25.589299999999998
594 33 5 0.00 -43.356 -9.7894 25.8783
595 34 4 0.00 -41.201 -1.391 25.7773
596 34 6 0.00 -40.005 -0.691 25.6333
597 34 4 0.00 -38.781 -1.335 25.6433
598 34 4 0.00 -37.589 -0.637 25.4983
599 34 4 0.00 -37.607 0.734 25.3403
600 34 4 0.00 -38.817 1.398 25.327299999999997
601 34 6 0.00 -39.992 0.68 25.4733
602 34 4 0.00 -41.208 1.334 25.461299999999998
603 34 4 0.00 -42.395 0.633 25.6053
604 34 4 0.00 -42.417 -0.737 25.766299999999998
605 34 5 0.00 -41.164 -2.455 25.8993
606 34 5 0.00 -38.811 -2.411 25.769299999999998
607 34 5 0.00 -36.663 -1.195 25.5143
608 34 5 0.00 -36.668 1.271 25.2273
609 34 5 0.00 -38.794 2.471 25.2013
610 34 5 0.00 -41.215 2.411 25.336299999999998
611 34 5 0.00 -43.317 1.193 25.589299999999998
612 34 5 0.00 -43.356 -1.272 25.8783
613 35 4 0.00 -41.201 7.1264 25.7773
614 35 6 0.00 -40.005 7.8264000000000005 25.6333
615 35 4 0.00 -38.781 7.1824 25.6433
616 35 4 0.00 -37.589 7.8804 25.4983
617 35 4 0.00 -37.607 9.2514 25.3403
618 35 4 0.00 -38.817 9.9154 25.327299999999997
619 35 6 0.00 -39.992 9.1974 25.4733
620 35 4 0.00 -41.208 9.8514 25.461299999999998
621 35 4 0.00 -42.395 9.150400000000001 25.6053
622 35 4 0.00 -42.417 7.7804 25.766299999999998
623 35 5 0.00 -41.164 6.0624 25.8993
624 35 5 0.00 -38.811 6.106400000000001 25.769299999999998
625 35 5 0.00 -36.663 7.3224 25.5143
626 35 5 0.00 -36.668 9.7884 25.2273
627 35 5 0.00 -38.794 10.9884 25.2013
628 35 5 0.00 -41.215 10.9284 25.336299999999998
629 35 5 0.00 -43.317 9.7104 25.589299999999998
630 35 5 0.00 -43.356 7.2454 25.8783
631 36 4 0.00 -41.201 15.6439 25.7773
632 36 6 0.00 -40.005 16.3439 25.6333
633 36 4 0.00 -38.781 15.6999 25.6433
634 36 4 0.00 -37.589 16.3979 25.4983
635 36 4 0.00 -37.607 17.768900000000002 25.3403
636 36 4 0.00 -38.817 18.4329 25.327299999999997
637 36 6 0.00 -39.992 17.7149 25.4733
638 36 4 0.00 -41.208 18.3689 25.461299999999998
639 36 4 0.00 -42.395 17.6679 25.6053
640 36 4 0.00 -42.417 16.297900000000002 25.766299999999998
641 36 5 0.00 -41.164 14.5799 25.8993
642 36 5 0.00 -38.811 14.6239 25.769299999999998
643 36 5 0.00 -36.663 15.8399 25.5143
644 36 5 0.00 -36.668 18.3059 25.2273
645 36 5 0.00 -38.794 19.5059 25.2013
646 36 5 0.00 -41.215 19.4459 25.336299999999998
647 36 5 0.00 -43.317 18.2279 25.589299999999998
648 36 5 0.00 -43.356 15.7629 25.8783
649 37 4 0.00 -41.201 24.161299999999997 25.7773
650 37 6 0.00 -40.005 24.8613 25.6333
651 37 4 0.00 -38.781 24.217299999999998 25.6433
652 37 4 0.00 -37.589 24.9153 25.4983
653 37 4 0.00 -37.607 26.286299999999997 25.3403
654 37 4 0.00 -38.817 26.9503 25.327299999999997
655 37 6 0.00 -39.992 26.2323 25.4733
656 37 4 0.00 -41.208 26.8863 25.461299999999998
657 37 4 0.00 -42.395 26.185299999999998 25.6053
658 37 4 0.00 -42.417 24.8153 25.766299999999998
659 37 5 0.00 -41.164 23.097299999999997 25.8993
660 37 5 0.00 -38.811 23.141299999999998 25.769299999999998
661 37 5 0.00 -36.663 24.3573 25.5143
662 37 5 0.00 -36.668 26.8233 25.2273
663 37 5 0.00 -38.794 28.0233 25.2013
664 37 5 0.00 -41.215 27.9633 25.336299999999998
665 37 5 0.00 -43.317 26.7453 25.589299999999998
666 37 5 0.00 -43.356 24.2803 25.8783
667 38 4 0.00 -41.201 24.161299999999997 17.259900000000002
668 38 6 0.00 -40.005 24.8613 17.1159
669 38 4 0.00 -38.781 24.217299999999998 17.1259
670 38 4 0.00 -37.589 24.9153 16.980900000000002
671 38 4 0.00 -37.607 26.286299999999997 16.8229
672 38 4 0.00 -38.817 26.9503 16.8099
673 38 6 0.00 -39.992 26.2323 16.9559
674 38 4 0.00 -41.208 26.8863 16.9439
675 38 4 0.00 -42.395 26.185299999999998 17.0879
676 38 4 0.00 -42.417 24.8153 17.2489
677 38 5 0.00 -41.164 23.097299999999997 17.3819
678 38 5 0.00 -38.811 23.141299999999998 17.2519
679 38 5 0.00 -36.663 24.3573 16.9969
680 38 5 0.00 -36.668 26.8233 16.7099
681 38 5 0.00 -38.794 28.0233 16.6839
682 38 5 0.00 -41.215 27.9633 16.8189
683 38 5 0.00 -43.317 26.7453 17.0719
684 38 5 0.00 -43.356 24.2803 17.3609
685 39 4 0.00 -41.201 24.161299999999997 8.7424
686 39 6 0.00 -40.005 24.8613 8.5984
687 39 4 0.00 -38.781 24.217299999999998 8.6084
688 39 4 0.00 -37.589 24.9153 8.4634
689 39 4 0.00 -37.607 26.286299999999997 8.3054
690 39 4 0.00 -38.817 26.9503 8.2924
691 39 6 0.00 -39.992 26.2323 8.4384
692 39 4 0.00 -41.208 26.8863 8.426400000000001
693 39 4 0.00 -42.395 26.185299999999998 8.570400000000001
694 39 4 0.00 -42.417 24.8153 8.7314
695 39 5 0.00 -41.164 23.097299999999997 8.8644
696 39 5 0.00 -38.811 23.141299999999998 8.7344
697 39 5 0.00 -36.663 24.3573 8.4794
698 39 5 0.00 -36.668 26.8233 8.192400000000001
699 39 5 0.00 -38.794 28.0233 8.1664
700 39 5 0.00 -41.215 27.9633 8.301400000000001
701 39 5 0.00 -43.317 26.7453 8.554400000000001
702 39 5 0.00 -43.356 24.2803 8.8434
703 40 4 0.00 -41.201 24.161299999999997 0.225
704 40 6 0.00 -40.005 24.8613 0.081
705 40 4 0.00 -38.781 24.217299999999998 0.091
706 40 4 0.00 -37.589 24.9153 -0.054
707 40 4 0.00 -37.607 26.286299999999997 -0.212
708 40 4 0.00 -38.817 26.9503 -0.225
709 40 6 0.00 -39.992 26.2323 -0.079
710 40 4 0.00 -41.208 26.8863 -0.091
711 40 4 0.00 -42.395 26.185299999999998 0.053
712 40 4 0.00 -42.417 24.8153 0.214
713 40 5 0.00 -41.164 23.097299999999997 0.347
714 40 5 0.00 -38.811 23.141299999999998 0.217
715 40 5 0.00 -36.663 24.3573 -0.038